192
Time=60000.00000005 pbc="T T T" Lattice="16.90951899 -0.01874928 -0.14694593 -8.31957552 14.70391910 0.05588010 0.25105887 -0.21124323 21.50732604" energy=-829.13909322 virial="-4.84181886 -7.17936932 2.47123369 -7.17936932 2.48708728 10.12875769 2.47123369 10.12875769 -1.11474492" stress="-0.00059651 -0.00134364 0.00046250 -0.00134364 0.00077511 0.00189562 0.00046250 0.00189562 0.00010102" Properties=species:S:1:pos:R:3
Ge 0.11488464 -0.05742198 10.62809933
Ge 8.56352794 14.61300982 -0.00792950
Ge -1.95053729 3.67545698 10.70578001
Ge 14.79372168 3.70155844 -0.03064032
Ge -3.94137567 7.44202960 10.66638125
Ge 12.66989633 7.29061729 -0.04912204
Ge -6.11027262 10.98417068 10.76974337
Ge -5.86532782 10.88255645 21.51907982
Ge 4.30534440 -0.06114426 10.68990783
Ge -4.12124429 14.68619226 0.01995724
Ge 2.20250594 3.64955497 10.55399351
Ge 2.17641055 3.63868405 -0.00454605
Ge 0.20229859 7.14610074 10.62548151
Ge 0.09246224 7.25747226 0.14094483
Ge -1.94846386 11.00146323 10.71235367
Ge -2.03500239 10.96335394 0.05238037
Ge 8.49406684 -0.08784682 10.57398385
Ge 6.36393986 3.59952803 10.54815558
Ge 6.60962268 3.48499123 21.37591483
Ge 4.34794409 7.30769862 10.73524056
Ge 4.39436685 7.51965853 -0.03032612
Ge 2.26609843 10.98836261 10.69645620
Ge 2.18080477 10.93573626 -0.00600125
Ge 12.85813739 -0.07337343 10.52422157
Ge 4.57813602 14.24696106 21.44807820
Ge 10.68667691 3.69392695 10.50236792
Ge 10.87851182 3.42380839 21.31071295
Ge 8.57462213 7.27919552 10.65609154
Ge 6.55244480 11.02249038 10.68907941
Ge 6.62605578 10.79703416 21.42342223
Ge 2.10447167 1.15183437 3.53051060
Ge 2.29584154 1.03917112 14.47608296
Ge 0.15932133 4.94161403 3.68064229
Ge 0.23498782 4.78147386 14.33326171
Ge -1.90658426 8.60755125 3.60295424
Ge -1.87301427 8.46521626 14.38680159
Ge -3.94680070 12.23921756 3.60384647
Ge -3.88994122 12.18541913 14.38426050
Ge 6.46954957 1.11043658 3.32092778
Ge 6.65234118 1.13505379 14.24073572
Ge 4.39690395 4.75861705 3.54727213
Ge 4.38345338 4.64863688 14.28923029
Ge 2.17213905 8.65197812 3.49253076
Ge 2.43438408 8.32469908 14.41686546
Ge 0.21736003 12.18760690 3.53818800
Ge 0.29951114 12.00124153 14.31346361
Ge 10.66524016 1.15846835 3.39468970
Ge 10.78955892 1.20067584 14.29860020
Ge 8.49780902 4.82756550 3.33152654
Ge 8.63277141 4.89982956 14.30774341
Ge 6.31352122 8.52395419 3.37026891
Ge 6.54110116 8.43879875 14.25309472
Ge 4.45920031 12.08921869 14.34226849
Ge 14.80213181 1.33920877 3.30386852
Ge 15.04235299 1.10115490 14.09932887
Ge 12.74902499 4.83642614 3.43874613
Ge 12.83928678 4.82861572 14.11370760
Ge 10.66626786 8.53369954 3.38781965
Ge 10.78739294 8.34719196 14.30842229
Ge 8.60493685 12.19405799 3.39066425
Ge 8.84547770 12.08982958 14.25352507
Ge 0.19686563 2.13032152 17.98379713
Ge -1.88755382 6.06580774 6.96720226
Ge -1.75645905 5.77844297 17.92371266
Ge -4.02548484 9.81856217 7.17196694
Ge -4.05945998 9.51287319 18.16617014
Ge -6.20467418 13.48677139 7.00438577
Ge -5.97413634 13.26165808 18.03863563
Ge 4.28262989 2.32961754 6.99704521
Ge 4.64126616 2.11670501 18.03539985
Ge 2.35180984 6.01977860 7.02889199
Ge 2.44898181 5.95314256 17.82009872
Ge 0.25935633 9.71326656 18.02527909
Ge -2.00208917 13.51679373 7.05219246
Ge -1.63434030 13.29788443 17.95337763
Ge 8.54046805 2.33622626 6.99793960
Ge 8.77445733 2.16319006 17.98571954
Ge 6.46623647 6.16332088 7.00443992
Ge 6.61409208 5.82887251 18.00398791
Ge 4.29397136 9.82550750 7.01021379
Ge 4.65391065 9.59575812 17.99114195
Ge 2.36382215 13.37750577 6.91925952
Ge 2.50188550 13.35435123 17.95333753
Ge 12.79840782 2.43592447 6.99897840
Ge 12.67605658 2.35876005 17.88293526
Ge 10.74309791 6.12119678 7.00562330
Ge 10.81274997 6.05947891 17.87799148
Ge 8.44446062 9.82354133 6.97618598
Ge 8.75542506 9.63130040 17.82819075
Ge 6.58112192 13.48456040 6.93891640
Ge 6.61620039 13.33313231 17.97842107
Te 0.21441606 14.67907551 0.09638446
Te 8.74210503 6.94031555 21.40514529
Te 4.36764514 12.25549711 3.61548095
Te 0.07452093 2.32470134 7.21451349
Te 0.25831635 9.74910740 7.13752500
Te 2.24268310 1.03012407 9.24703787
Te 2.28525470 0.99238443 19.99890080
Te 0.10971395 4.86099824 9.13171795
Te 0.33755018 4.74795683 20.13822539
Te -1.88016413 8.51402079 9.14095470
Te -1.78947366 8.36799258 20.03265979
Te -3.99924187 12.20322825 9.22753585
Te -3.76359258 12.00702794 20.00893080
Te 6.46758908 1.16349441 9.10055094
Te 6.48954387 0.96785615 19.79614220
Te 4.28897582 4.80354012 9.19330212
Te 4.48094556 4.64386178 19.90966511
Te 2.28809994 8.52796778 9.10532601
Te 2.42867748 8.23004752 19.99384782
Te 0.13130277 12.23593668 9.20557105
Te 0.27607932 11.93392190 19.96790371
Te 10.59621127 1.17513605 9.17663706
Te 10.93099408 1.04288048 19.75229508
Te 8.44925160 4.78832319 9.11883522
Te 8.77372149 4.54189619 19.77181925
Te 6.47248856 8.49970953 9.20387226
Te 6.59383258 8.37214872 19.73952205
Te 4.49771181 12.15549402 9.15572934
Te 4.56284272 11.92610088 19.90333693
Te 14.87170952 1.19002584 9.07537398
Te 15.00957819 1.01220380 19.93632759
Te 12.89118346 4.86577085 9.17187209
Te 12.99024203 4.74955295 19.90374048
Te 10.72693606 8.44578886 9.20072576
Te 10.94811614 8.30381045 19.90595925
Te 8.75942378 12.12169276 9.17783091
Te 8.86606144 11.99466016 19.95656114
Te 0.09791066 2.45691702 2.04356541
Te 0.21613224 2.22279952 12.86949793
Te -2.00726755 6.15444507 2.21265161
Te -1.88296565 6.00353583 12.82927013
Te -4.05343318 9.71000062 2.07791061
Te -3.96935962 9.66717666 12.92828791
Te -6.18303345 13.47040727 2.10009840
Te -6.04921476 13.37122060 12.91172659
Te 4.18359892 2.31327346 2.03559998
Te 4.40815798 2.29669572 12.85118247
Te 2.22295011 6.06925434 2.00818100
Te 2.22863122 5.87762564 12.79151206
Te 0.14030374 9.79442541 2.03919971
Te 0.27714728 9.65781235 12.82192346
Te -1.99646453 13.36601366 2.09394953
Te -1.81261048 13.28579971 12.89446135
Te 8.43471995 2.41952853 1.88389762
Te 8.71381197 2.42009698 12.74713151
Te 6.34027452 6.06041393 1.90101789
Te 6.46891883 5.91241050 12.71071398
Te 4.39047010 9.70288996 1.84038825
Te 4.51104855 9.67093509 12.80781741
Te 2.28300353 13.45661590 1.97132894
Te 2.38801655 13.37120522 12.87318029
Te 12.64250403 2.52629454 1.92069317
Te 12.93694281 2.43781838 12.75379834
Te 10.70288364 6.05715312 1.88083282
Te 10.64612027 5.87220472 12.63925181
Te 8.52851725 9.81056768 1.92974270
Te 8.77012562 9.56441666 12.78095366
Te 6.61406428 13.52602961 1.89753429
Te 6.63884806 13.29677671 12.78792232
Te 16.93584123 -0.06684403 5.32461409
Te 8.68776332 14.37488666 16.41974079
Te 14.79143895 3.71238718 5.38426244
Te 15.07173010 3.37357806 16.35012991
Te -4.09303770 7.40315075 5.71206132
Te -3.89489416 7.21925672 16.51785838
Te 10.64644803 10.96963271 5.56074119
Te -5.93045894 10.84906941 16.58327011
Te 4.15809814 0.00841276 5.47913913
Te -3.84023312 14.51805631 16.41935930
Te 2.19544342 3.59561586 5.56892886
Te 2.25370346 3.41525897 16.51789401
Te 0.26304909 7.14324918 5.46767934
Te 0.30520104 7.14396430 16.27494634
Te -2.07768737 11.03781363 5.52506769
Te -1.85306290 10.82432756 16.47660927
Te 8.57852924 -0.04511001 5.51993542
Te 8.69090000 -0.13455787 16.35120901
Te 6.37345040 3.64637734 5.57055452
Te 6.63096076 3.50389754 16.43314196
Te 4.34023587 7.37451651 5.60031777
Te 4.50764950 7.15647925 16.33632472
Te 2.28860212 10.96856078 5.44006607
Te 2.42194541 10.86265671 16.46266969
Te 12.81809357 0.07400290 5.52261675
Te 12.93139506 -0.14409370 16.37135293
Te 10.67291854 3.64302329 5.59614229
Te 10.69855603 3.57700874 16.36113532
Te 8.68320399 7.32789840 5.49947507
Te 8.62273412 7.11534774 16.45436240
Te 6.47516862 11.03460050 5.51016991
Te 6.65972778 10.73305797 16.26801589
192
Time=70000.00000007 pbc="T T T" Lattice="16.89412781 0.01568479 -0.06117121 -8.46611815 14.68614494 -0.04024728 -0.05507533 -0.02847495 21.34057454" energy=-829.05602771 virial="3.83133596 -0.68588482 1.88345654 -0.68588482 0.03316914 -0.86800658 1.88345654 -0.86800658 0.66724521" stress="0.00103543 -0.00012946 0.00035549 -0.00012946 0.00031854 -0.00016383 0.00035549 -0.00016383 0.00043822" Properties=species:S:1:pos:R:3
Ge 16.80169240 0.01764499 10.68602625
Ge 8.36326994 14.68344820 0.01573513
Ge -2.12055960 3.77900194 10.71048335
Ge 14.71374318 3.70556727 0.01036800
Ge -4.18028966 7.46994750 10.57158283
Ge 12.61065101 7.31189043 21.24904411
Ge -6.38718292 11.23499768 10.41945613
Ge -6.38217523 11.08282391 -0.01130894
Ge 4.06468295 0.10095661 10.64380221
Ge 4.10464030 0.09078364 21.17522378
Ge 2.06679289 3.82162143 10.56121935
Ge 2.14881033 3.64685639 21.27820160
Ge 0.05504289 7.24268044 10.63343044
Ge 0.12023770 7.41040852 0.01210083
Ge -2.19442053 11.06836578 10.63440715
Ge -2.08824073 11.06174992 0.05671472
Ge -0.10798322 14.59099797 10.62396612
Ge 6.39084644 3.64758442 10.52596353
Ge 6.34440156 3.57934198 21.13980406
Ge 4.14161630 7.42245810 10.66478775
Ge 4.33095610 7.46693242 0.12093011
Ge 2.02756072 11.05462264 10.57434498
Ge 2.12544046 11.06618113 -0.02290481
Ge 4.28698055 14.62384017 10.39263178
Ge 4.18097789 14.56745475 21.16991358
Ge 10.62605125 3.77985791 10.57436270
Ge 10.56933687 3.60621572 -0.04898141
Ge 8.42786732 7.33645248 10.44213653
Ge 6.25754223 11.05680812 10.56026115
Ge 6.24282527 11.18784635 0.08701552
Ge 2.23659676 1.28420791 3.57722336
Ge 2.04170479 1.27133188 14.36081482
Ge 0.13585049 4.96374777 3.78218525
Ge -0.00494864 4.87075411 14.27591640
Ge -2.01677732 8.56573210 3.41955437
Ge -2.15753463 8.69453630 14.19084542
Ge -4.01942286 12.20372201 3.44921422
Ge -4.21687048 12.34904271 14.22472986
Ge 6.30229221 1.14761272 3.53510666
Ge 6.30187357 1.28399859 14.25473696
Ge 4.10241630 4.91407756 3.54104980
Ge 4.25181806 4.95710295 14.17165365
Ge 2.09059773 8.56785234 3.41749967
Ge 2.05404127 8.53929204 14.25739209
Ge 0.01982108 12.24985045 3.56018541
Ge -0.07551011 12.24689494 14.30379907
Ge 10.66405905 1.36555067 3.46349505
Ge 10.50811870 1.21844634 14.15049496
Ge 8.38205460 4.85807747 3.50141418
Ge 8.38026353 4.88239878 14.13212604
Ge 6.26180600 8.59880668 3.40318196
Ge 6.42066877 8.62833100 14.14542757
Ge 4.13833735 12.17877550 14.08397661
Ge 14.77167062 1.28350337 3.54410506
Ge 14.70057963 1.22701108 14.10900640
Ge 12.76848116 4.86123039 3.46516466
Ge 12.57225883 4.87198091 14.02232737
Ge 10.55918953 8.58570214 3.50347284
Ge 10.58783644 8.65171292 14.26633078
Ge 8.44069079 12.24376087 3.48620996
Ge 8.22085718 12.24287521 14.19787502
Ge -0.16498455 2.62627743 17.71845590
Ge -2.10087175 6.06253505 7.01072314
Ge -2.10123432 6.18393360 17.78742376
Ge -4.16624591 9.77057335 7.01860484
Ge -4.27825644 9.66198548 17.94247802
Ge -6.40245776 13.41378958 7.02977076
Ge -6.51746626 13.50140506 17.87356615
Ge 4.11054330 2.52127540 7.07447937
Ge 4.42334660 2.40697213 17.96313504
Ge 2.19738510 6.15930605 7.02881307
Ge 2.18271215 6.11092538 17.66913376
Ge -0.02107996 9.96813575 17.82434238
Ge -2.04335619 13.50269365 6.86050552
Ge -2.17702509 13.40466933 17.73551890
Ge 8.42354904 2.31379380 6.98303883
Ge 8.40117583 2.58517099 17.69443423
Ge 6.27629079 6.08650337 6.97960728
Ge 6.33586371 6.16244188 17.90849447
Ge 4.24706872 9.70784016 7.03448425
Ge 4.27232251 9.61049860 17.93505613
Ge 2.08521542 13.48297576 6.96991441
Ge 2.09608742 13.39220668 17.81179755
Ge 12.69133674 2.42439217 6.98379170
Ge 12.50571984 2.41223670 17.81869720
Ge 10.61373915 6.16779713 7.06235265
Ge 10.55257422 6.17713048 17.72572971
Ge 8.36082518 9.82318617 6.96835296
Ge 8.49652483 9.75865405 17.74741264
Ge 6.24498293 13.55317346 6.90797261
Ge 6.20205355 13.28207731 17.86569152
Te 8.55232036 0.04535351 0.17221353
Te 8.50772697 7.35842320 0.06943265
Te 4.18065076 12.20215902 3.51773425
Te -0.06240814 2.48308367 7.21229885
Te 0.06864932 9.77836007 6.99536629
Te 2.02736423 1.17156578 9.15594690
Te 2.03449853 1.15077235 19.76359774
Te -0.09421531 4.91790038 9.03805960
Te -0.09296450 4.89733033 19.86528833
Te -2.08591972 8.56068321 9.09476558
Te -2.10890692 8.48426590 19.84136582
Te -4.25261660 12.25672479 9.07004675
Te -4.33441863 12.15421347 19.77905567
Te 6.19630248 1.15630638 9.08119244
Te 6.28197465 1.21537512 19.63854033
Te 4.26465715 4.79743048 9.13569075
Te 4.18043554 4.90811485 19.73097260
Te 2.14153485 8.56643938 9.04113602
Te 2.10805855 8.55956418 19.84887768
Te -0.15413413 12.19619674 9.06144879
Te -0.08650486 12.16104663 19.68141772
Te 10.47123388 1.09131721 9.20382735
Te 10.54282488 1.14801915 19.65503996
Te 8.44715396 4.85943669 8.99173579
Te 8.34321207 4.73977194 19.64083930
Te 6.39159128 8.55666665 9.09814392
Te 6.24411993 8.51508665 19.72254416
Te 4.07089713 12.15687713 9.01357153
Te 4.11230118 12.17034807 19.75815636
Te 14.79695021 1.29684689 9.10375616
Te 14.79539636 1.26050052 19.80504581
Te 12.65019119 4.97527700 9.11885452
Te 12.60772198 4.76444402 19.73673194
Te 10.56236402 8.53652480 9.08513281
Te 10.54789819 8.67170519 19.56750925
Te 8.33572997 12.29681965 9.06060257
Te 8.34197368 12.24876174 19.74241929
Te -0.01101745 2.37257414 1.98858212
Te -0.13843397 2.39377279 12.71695294
Te -2.07614529 6.12918025 1.89580909
Te -2.18882629 6.08950238 12.79187764
Te -4.31409702 9.78955461 2.07745183
Te -4.33634548 9.78909861 12.73525677
Te -6.40158717 13.41382912 1.90732859
Te -6.33463159 13.43472625 12.80653355
Te 4.25545262 2.34500145 1.97502778
Te 4.13080799 2.44431759 12.83719617
Te 2.01864500 5.99425256 1.92233190
Te 2.04662384 6.12851892 12.70397749
Te -0.01294161 9.83283665 1.94254042
Te 0.00641566 9.76131302 12.78888699
Te -2.15900099 13.40216336 1.95157072
Te -2.13647067 13.47587948 12.67375798
Te 8.41593162 2.51987443 2.06170956
Te 8.36519703 2.47260858 12.71028535
Te 6.22121024 6.07497610 2.04444812
Te 6.23644335 6.12087379 12.56370459
Te 4.15761550 9.66502338 1.82187823
Te 4.02443184 9.76760411 12.61424847
Te 2.15431622 13.52356307 1.94764885
Te 2.06795977 13.39720960 12.70026361
Te 12.63668611 2.47003418 1.93537466
Te 12.58714838 2.45811653 12.49192897
Te 10.56472261 6.10030482 1.97910938
Te 10.40572289 6.23250521 12.66665843
Te 8.38105647 9.87796074 1.94340781
Te 8.44803901 9.80601572 12.63161910
Te 6.37438322 13.47215607 1.81661075
Te 6.29375039 13.46602555 12.56357566
Te 8.33587670 14.63229936 5.40769320
Te 8.25051819 14.61262152 16.20936666
Te 14.64937283 3.67233690 5.31671824
Te 14.64623523 3.66035703 16.19874885
Te 12.62378243 7.38395652 5.50698711
Te -4.26453428 7.34349519 16.19928939
Te 10.51303766 10.95658301 5.53449092
Te -6.40247526 11.07669497 16.28277959
Te 4.15543039 0.00184606 5.66312028
Te -4.32408098 14.65252308 16.31649156
Te 2.17405036 3.73230257 5.46498733
Te 2.09337413 3.65162756 16.28656241
Te 0.04076599 7.27700640 5.43497143
Te -0.10727836 7.33935882 16.27670413
Te -2.16021324 11.10490800 5.44488873
Te -2.12525150 10.93940539 16.25402494
Te 0.04182766 14.59522497 5.39190841
Te -0.07314011 14.54180995 16.19199178
Te 6.31109650 3.61436927 5.65309025
Te 6.25823258 3.73697901 16.19317601
Te 4.17892257 7.28388575 5.46159905
Te 4.19648358 7.28309088 16.27200688
Te 2.23476435 10.89854158 5.38204604
Te 2.13745650 10.96946766 16.21993368
Te 12.66381637 0.06230629 5.52464590
Te 4.09907825 14.66960117 16.20646250
Te 10.51308820 3.69663166 5.58653032
Te 10.52826416 3.75844093 16.24998577
Te 8.40219370 7.28459334 5.47141438
Te 8.36017526 7.37073804 16.22726475
Te 6.37777131 10.98800613 5.51292365
Te 6.22646445 10.95997704 16.16639862
192
Time=80000.00000008 pbc="T T T" Lattice="16.96918020 0.04924040 0.08725976 -8.53823995 14.65126881 0.00120814 0.06246876 -0.03998244 21.36706443" energy=-829.30573946 virial="-1.82631106 4.15969914 -5.92641400 4.15969914 2.18261287 -0.41233868 -5.92641400 -0.41233868 6.07113879" stress="-0.00003228 0.00078178 -0.00111381 0.00078178 0.00072115 -0.00007750 -0.00111381 -0.00007750 0.00145196" Properties=species:S:1:pos:R:3
Ge 0.03069232 0.00565326 10.54076760
Ge 8.29991466 14.56036312 0.28651938
Ge -2.09726013 3.66759920 10.56848374
Ge -2.10487358 3.66213365 0.07001028
Ge -4.10314630 7.37177275 10.51893019
Ge -4.13146841 7.30410308 21.32620635
Ge 10.51017925 11.06964282 10.68722550
Ge 10.51010357 11.07898247 0.09565909
Ge -4.41656350 14.59315369 10.61151825
Ge 4.14182081 0.03686756 0.15406968
Ge 2.13067722 3.74583027 10.53567660
Ge 2.08791164 3.71118870 0.02714400
Ge -0.00154611 7.30504606 10.68115485
Ge -0.06492932 7.45104052 0.11488560
Ge -2.01453123 11.03841277 10.61194172
Ge -2.14797150 10.98326246 21.36753126
Ge 8.47723482 0.02167271 10.78267216
Ge 6.33278090 3.69799058 10.72097516
Ge 6.33532728 3.68886987 21.29594205
Ge 4.27750418 7.36161483 10.62332479
Ge 4.13515152 7.48173801 0.12226303
Ge 2.16673542 10.98076481 10.58977869
Ge 2.11547156 11.02262203 21.36931588
Ge 4.21587297 14.54361097 10.67689220
Ge 4.22832014 14.63292894 0.18084347
Ge 10.55360910 3.71065008 10.78650909
Ge 10.65910401 3.62338303 21.41030560
Ge 8.37119027 7.24577869 10.74604025
Ge 6.26415862 11.02077123 10.56491238
Ge 6.31064292 10.89668984 21.35202533
Ge 2.14589153 1.13466121 3.50601720
Ge 2.06330214 1.15626897 14.28374511
Ge 0.04238860 5.04086938 3.64454735
Ge 0.00329454 4.70710026 14.34087823
Ge -2.11279009 8.65181645 3.76190484
Ge -2.21561822 8.61422349 14.18021487
Ge -4.09059561 12.14010660 3.66891928
Ge -4.25079349 12.18176630 14.28097207
Ge 6.45522106 1.15442966 3.47426139
Ge 6.37063595 1.31012092 14.30242563
Ge 4.17054628 4.85249812 3.71247154
Ge 4.21096312 4.90784497 14.24419719
Ge 2.14330502 8.72907651 3.63367420
Ge 2.11006733 8.52956220 14.18723397
Ge -0.06990844 12.17949771 3.61175651
Ge -0.03011069 12.26561970 14.27046278
Ge 10.53627261 1.32005684 3.55687297
Ge 10.65594738 1.25677511 14.26909270
Ge 8.60074510 4.93347015 3.56056269
Ge 8.45118975 5.04124189 14.36136205
Ge 6.30258884 8.53427562 3.42573357
Ge 6.32510165 8.58064925 14.28784665
Ge 4.18339532 12.15757049 14.38437468
Ge 14.82869657 1.37265741 3.50196994
Ge 14.90559075 1.19626318 14.41783715
Ge 12.83803750 4.81411836 3.64928353
Ge 12.75999027 4.81651851 14.36159338
Ge 10.65928480 8.53703953 3.52376873
Ge 10.59026248 8.50426085 14.30385893
Ge 8.42134064 12.23731413 3.65866011
Ge 8.47787401 12.18905145 14.37311245
Ge 0.14484495 2.36522830 17.85301051
Ge -2.18698742 6.01965513 6.93328725
Ge -2.07260407 6.06324489 17.81802868
Ge -4.34304855 9.79325779 7.07788815
Ge -4.27422492 9.70997942 17.94321204
Ge -6.45025526 13.48870194 7.02811228
Ge -6.34052335 13.48077408 17.88361065
Ge 4.34544270 2.60323579 7.12222710
Ge 4.36033415 2.45087830 18.12339977
Ge 2.20422292 6.13701134 6.99807006
Ge 2.17182048 6.22395043 17.75494243
Ge -0.04029130 9.91146347 17.89480115
Ge -2.20160186 13.56170791 7.08101541
Ge -2.11086853 13.40612491 17.95673820
Ge 8.51594560 2.21382612 7.16309821
Ge 8.51857125 2.56246457 17.96707936
Ge 6.27684799 6.15686163 7.00791470
Ge 6.37535710 6.06789292 17.91594848
Ge 4.22983422 9.85503060 6.98226593
Ge 4.39071669 9.71253391 17.94907854
Ge 2.06173630 13.45496551 6.93340314
Ge 2.05351694 13.33428633 17.78775539
Ge 12.72136107 2.32421228 7.04425738
Ge 12.61087798 2.39010406 18.02502060
Ge 10.50336876 6.10830799 7.09018583
Ge 10.56927087 6.08077239 17.83459211
Ge 8.36671128 9.78005294 7.02639295
Ge 8.58216310 9.88114590 17.93825005
Ge 6.22370968 13.39991865 7.10934530
Ge 6.25540851 13.57302076 18.04805631
Te -0.01888828 14.60231934 0.15114964
Te 8.43282038 7.34379889 0.22990262
Te 4.03729170 12.24466201 3.61094246
Te -0.07863562 2.40427848 7.10066709
Te 0.03394711 9.79154236 7.30582680
Te 2.19661422 1.21164664 9.14787645
Te 2.16102324 1.21247293 19.98967584
Te 0.03418798 4.98364860 9.11160835
Te 0.03602795 5.01332548 19.96883741
Te -2.08582577 8.50597685 9.10785222
Te -2.03605215 8.51992265 19.75599645
Te -4.13903514 12.10906424 9.14809198
Te -4.19603649 12.23416499 19.90724974
Te 6.37157979 1.24971497 9.17927967
Te 6.38868387 1.19012127 19.81502089
Te 4.31867123 4.89035230 9.24480515
Te 4.20204445 4.97377342 19.93524738
Te 2.08358572 8.46932695 9.16484214
Te 2.05962734 8.53361275 19.81994534
Te 0.01214994 12.40313689 9.20182395
Te -0.03759450 12.01193600 19.78529507
Te 10.65662172 1.27959717 9.31588894
Te 10.71443878 1.28862700 19.80502104
Te 8.46993464 4.88470619 9.15278076
Te 8.47999881 4.79506843 19.80198431
Te 6.35716866 8.56758170 9.19387875
Te 6.31800733 8.52658968 19.78778599
Te 4.12764395 12.25140216 9.05932855
Te 4.27891859 12.29240518 19.91934295
Te 14.78954551 1.19626048 9.14293313
Te 15.01962808 1.21472528 19.91452953
Te 12.69496318 4.95427218 9.24839537
Te 12.83799672 4.85755454 19.93974996
Te 10.47938482 8.53419373 9.26626379
Te 10.78847315 8.55378344 19.89543072
Te 8.42072187 12.26367864 9.17045034
Te 8.57813539 12.21158415 20.01065409
Te 0.11023105 2.43976231 2.04138713
Te 0.10037613 2.38076604 12.77037539
Te -2.07151872 5.99462506 2.15951994
Te -2.11774455 6.01398888 12.80921112
Te -4.21461281 9.68088164 2.11631652
Te -4.36831225 9.86836991 12.80374488
Te -6.31773702 13.42444890 2.03174308
Te -6.41403416 13.44643575 12.72795900
Te 4.28175883 2.40420605 2.11677559
Te 4.26657372 2.49291416 12.87109907
Te 2.24150904 6.10758167 2.08837544
Te 2.11741460 6.05870724 12.79289376
Te 0.01074517 9.75543086 2.07135079
Te -0.03942536 9.76235822 12.77783779
Te -2.19518399 13.34690525 2.03785486
Te -2.14844055 13.46865199 12.78490572
Te 8.56907107 2.56555820 2.05113907
Te 8.56470550 2.47226792 12.93890216
Te 6.32195752 6.11040624 2.09788186
Te 6.37413043 6.10768051 12.83013828
Te 4.26219460 9.74210793 1.87512264
Te 4.22555170 9.72878962 12.73973593
Te 2.02386216 13.54658947 1.95655274
Te 2.15558564 13.41857426 12.83431305
Te 12.74890805 2.38439160 2.03234372
Te 12.82650424 2.43999252 12.90983395
Te 10.68897222 6.08929391 2.14407925
Te 10.62009201 6.05686964 12.88842747
Te 8.44475512 9.81614122 2.11341584
Te 8.51813711 9.74722895 12.86552927
Te 6.38901728 13.44348533 2.01611243
Te 6.33048065 13.51396098 12.87983891
Te 8.44726087 14.56986317 5.56678058
Te -8.46169227 14.59734896 16.33509924
Te 14.85218285 3.65970655 5.51647487
Te -2.03683822 3.58621943 16.31805316
Te 12.65321350 7.31469629 5.69495810
Te -4.24181157 7.34468281 16.40819947
Te 10.51501504 10.98039822 5.57866159
Te -6.30893083 11.03778988 16.41433714
Te 4.30885565 0.08471898 5.61438189
Te -4.20928621 14.59556167 16.43836916
Te 2.29442933 3.73793284 5.63207063
Te 2.23739765 3.63008875 16.39430635
Te 0.06348241 7.19276239 5.49108991
Te -0.00021138 7.36163104 16.39398946
Te -2.29457569 10.99334221 5.58325767
Te -2.08321909 11.01214915 16.36473364
Te -0.03290379 14.66196176 5.56897584
Te -0.00442687 14.52376998 16.34043977
Te 6.45640122 3.75585995 5.67166059
Te 6.30317182 3.59559106 16.36438606
Te 4.20666317 7.38704709 5.56592603
Te 4.30484325 7.37449609 16.32212705
Te 2.02821416 11.05702437 5.51724954
Te 2.17062266 10.96412407 16.32985541
Te 12.70085898 0.03950401 5.55650056
Te 12.81220882 0.03711237 16.42172636
Te 10.57497972 3.54678024 5.64789130
Te 10.62691683 3.55626290 16.37513270
Te 8.46932717 7.29627152 5.59983677
Te 8.48042864 7.37196291 16.44060387
Te 6.38417933 11.05845012 5.47744776
Te 6.32693573 11.02985134 16.52721189
192
Time=90000.00000003 pbc="T T T" Lattice="16.89092484 0.22579262 0.03454054 -8.59698817 14.59635051 0.11303646 0.07694421 -0.13579719 21.45989206" energy=-828.96632481 virial="3.96259240 -0.50727962 -1.84821389 -0.50727962 -6.18229500 -1.76341026 -1.84821389 -1.76341026 -1.26170775" stress="0.00105333 -0.00009513 -0.00034658 -0.00009513 -0.00084905 -0.00033068 -0.00034658 -0.00033068 0.00007366" Properties=species:S:1:pos:R:3
Ge 8.13704358 14.72595613 10.76547566
Ge 8.17859404 14.69106490 0.24098730
Ge -2.01298334 3.51045838 10.63515474
Ge -2.09210927 3.59218658 21.39552401
Ge -4.10540484 7.09546029 10.67700729
Ge 12.62961033 7.35783613 21.50754903
Ge 10.45330533 11.09759480 10.67660395
Ge -6.38236626 10.92529887 21.46003365
Ge -4.40054185 14.52783279 10.73087395
Ge -4.45940758 14.45979730 0.33252729
Ge 2.02310785 3.60487991 10.68426471
Ge 2.11799802 3.60088002 0.08884493
Ge -0.01394233 7.22622049 10.79019124
Ge -0.03746341 7.37098476 0.07300596
Ge -2.21345887 10.91140680 10.76497505
Ge -2.13123752 10.82407980 21.44624926
Ge -0.16844253 14.62697002 10.76357939
Ge 6.29398410 3.64454710 10.68203527
Ge 6.30621657 3.69817678 0.12373220
Ge 4.14542393 7.28496233 10.63178116
Ge 4.17653808 7.55450614 0.24788094
Ge 2.09409145 10.95130958 10.58037622
Ge 2.13851459 10.79199228 21.55595140
Ge 4.02957443 14.62803797 10.76360726
Ge 4.09333750 14.65000707 0.22882942
Ge 10.45572452 3.96658591 10.80359372
Ge 10.39769724 3.74356173 0.05836623
Ge 8.31343001 7.42453609 10.70099101
Ge 6.19631903 11.10537503 10.71767080
Ge 6.26010689 11.01750308 21.50455629
Ge 2.02633870 1.13493337 3.51184094
Ge 2.23245052 1.19162097 14.32848144
Ge -0.16077336 4.97208296 3.70757393
Ge 0.02612930 4.69994711 14.50772171
Ge -2.24346131 8.72216026 3.68648367
Ge -2.03940344 8.55158489 14.34186671
Ge -4.24880989 12.10522504 3.62768970
Ge -4.40469158 12.14431532 14.40951144
Ge 6.34194080 1.21352745 3.58610591
Ge 6.11442112 1.10054484 14.36778248
Ge 4.16927061 4.92596953 3.67053264
Ge 4.20173847 4.80453280 14.50960536
Ge 1.96549642 8.61703853 3.47189317
Ge 2.10236096 8.52980967 14.41457026
Ge -0.09609909 12.21625579 3.72840530
Ge -0.13051256 12.09586874 14.61353205
Ge 10.56460566 1.31292528 3.46712907
Ge 10.40195362 1.19811733 14.29914943
Ge 8.38880698 4.92660436 3.55463191
Ge 8.43117133 5.05759382 14.36839380
Ge 6.24874164 8.65912683 3.54224664
Ge 6.25748880 8.51855969 14.49362076
Ge 4.10970956 12.23499932 14.50201151
Ge 14.84373028 1.37328015 3.53688741
Ge 14.79977347 1.45183170 14.29471356
Ge 12.74434143 4.92933267 3.57473935
Ge 12.66253317 4.80110514 14.37163232
Ge 10.49743072 8.66002846 3.64699340
Ge 10.59127657 8.65540204 14.31103380
Ge 8.32870864 12.31952976 3.76076617
Ge 8.37415134 12.15986880 14.49231961
Ge 0.03747519 2.24340654 18.13904048
Ge -2.05632030 6.06027465 7.09214279
Ge -2.18911216 5.93511801 17.95503274
Ge -4.23211012 9.65699828 7.19159770
Ge -4.38204253 9.57642236 18.12981500
Ge -6.45392104 13.50367291 7.17753515
Ge -6.43510886 13.28851553 17.94914324
Ge 4.11861982 2.54913048 7.10993444
Ge 4.34220903 2.49563329 18.23325305
Ge 2.09897194 6.07124433 6.93715236
Ge 2.01683172 5.90204237 17.96316538
Ge -0.06943386 9.76066994 18.13949216
Ge -2.25499240 13.49276576 7.09458243
Ge -2.22456063 13.33215598 18.12047823
Ge 8.44272771 2.43721889 6.98992235
Ge 8.48148038 2.49316406 18.33126297
Ge 6.26289731 6.18593228 7.10271285
Ge 6.36841665 6.06669559 18.01764087
Ge 4.13852084 9.81065160 7.09439188
Ge 4.37406075 9.78789802 18.17355245
Ge 2.02243721 13.53119159 7.24169272
Ge 1.97946773 13.44813666 18.01869130
Ge 12.71235965 2.63202499 7.03804957
Ge 12.61815518 2.41635142 18.09830017
Ge 10.51713590 6.24330796 7.11981678
Ge 10.53403916 6.07722759 17.97824248
Ge 8.27018479 9.94539927 7.06823081
Ge 8.50489277 9.80575805 18.10311485
Ge 6.32592222 13.51178264 7.07564457
Ge 6.26153472 13.40322880 17.99821113
Te -0.18177870 14.63616650 0.35087035
Te 8.35081000 7.43829541 0.23984816
Te 4.03771678 12.28225174 3.75563756
Te 0.07595504 2.46844591 7.09465294
Te 0.04382350 9.75875287 7.17459788
Te 2.15535783 1.19739556 9.17289980
Te 2.19391418 1.13294917 19.97705178
Te -0.00577647 4.93330986 9.23520516
Te 0.06487869 4.81261339 20.02076591
Te -2.22377150 8.50922389 9.17448832
Te -2.03788876 8.37074182 20.01998131
Te -4.29601557 12.24506516 9.18915822
Te -4.23118423 12.00159481 20.07385043
Te 6.37963738 1.24624900 9.15440399
Te 6.33174054 1.17409295 19.89890736
Te 4.22211612 4.84779660 9.20840110
Te 4.25397579 4.82609226 20.08385936
Te 2.08698857 8.48090551 9.10793617
Te 2.17956527 8.38634979 19.97995395
Te -0.12996866 12.25181087 9.27497713
Te 0.00998353 12.09301639 19.98537926
Te 10.48540537 1.37684158 9.28580596
Te 10.67411351 1.23278582 19.92161206
Te 8.40241261 4.99963717 9.21970961
Te 8.49666956 4.85842400 19.95771957
Te 6.11040947 8.67565750 9.26569521
Te 6.35340411 8.62816084 20.04137074
Te 4.08767268 12.22693443 9.17393002
Te 4.17368468 12.17024120 20.00125663
Te 14.72560646 1.32582718 9.13812470
Te 14.90902903 1.32800621 20.07545016
Te 12.62125236 4.92817252 9.33276976
Te 12.68419977 4.98614499 20.03324142
Te 10.42180841 8.59059330 9.30631859
Te 10.63119989 8.68219883 20.10764441
Te 8.27630377 12.35565946 9.31810241
Te 8.40044026 12.24528599 20.09731407
Te 0.09177873 2.38153192 2.09002556
Te 0.06542338 2.32814327 12.83126198
Te -2.11566393 6.21968845 2.01637315
Te -2.05994014 6.06165101 12.83377352
Te -4.40522208 9.70180928 2.11988971
Te -4.19170334 9.76104227 12.82578364
Te -6.53978424 13.41168957 2.10509510
Te -6.42109649 13.30447389 12.83328913
Te 4.25900890 2.48411611 2.16197216
Te 4.26219143 2.43341242 12.78940072
Te 2.00131560 6.08200426 2.15051235
Te 2.13202641 6.02324849 12.95571722
Te -0.06323935 9.84888249 2.09161727
Te 0.00251028 9.73873562 12.90334313
Te -2.35178822 13.52050384 2.16140573
Te -2.22224297 13.32584837 12.97455980
Te 8.44376477 2.61642674 2.06821096
Te 8.35113797 2.63881446 12.88212395
Te 6.26636910 6.19328898 2.08094992
Te 6.32133482 6.05570905 12.89021268
Te 4.12039116 9.84067604 2.03044008
Te 4.22019997 9.78876488 12.93042157
Te 1.96921583 13.56804350 2.16027421
Te 1.87405657 13.38435270 12.97120866
Te 12.61418911 2.59670285 2.05444657
Te 12.63947363 2.47731115 12.80809473
Te 10.65929609 6.24838804 2.16094423
Te 10.58806353 6.23680171 12.95494221
Te 8.33266382 10.02741748 2.12087612
Te 8.32882456 9.78914952 13.01978153
Te 6.26011246 13.59389145 2.11050590
Te 6.18419652 13.53423315 13.01969829
Te -8.52057464 14.52209885 5.55483784
Te 0.10492200 -0.05451997 16.44631417
Te 14.67707842 3.93581630 5.65407030
Te 14.76730526 3.71795949 16.45120620
Te -4.20423125 7.36209653 5.63160897
Te -4.21672107 7.17277325 16.59251410
Te -6.41801396 10.94797800 5.61581172
Te -6.29987486 10.81684624 16.54458940
Te 4.19516824 0.11242952 5.55748308
Te 4.15849242 0.07545458 16.40966373
Te 2.18746601 3.71991978 5.39194616
Te 2.12622956 3.48944622 16.50231457
Te -0.05552602 7.24312400 5.54345080
Te -0.00401837 7.13541534 16.56693144
Te -2.25847770 11.03468994 5.60236663
Te -2.14780253 10.83043616 16.51383617
Te -0.04881847 14.64840123 5.70690471
Te -0.12257133 14.58869184 16.56641269
Te 6.28804565 3.78718939 5.56313468
Te 6.52829271 3.66326175 16.38964982
Te 4.19730593 7.46943989 5.58161000
Te 4.22256253 7.22953210 16.57481705