192
Time=60000.00000005 pbc="T T T" Lattice="17.02820035 -0.15806777 0.29612438 -8.29388774 14.82273503 -0.27906622 -0.33948781 0.10927279 21.52112389" energy=-826.35807216 virial="-21.14485092 -5.50852928 3.34901703 -5.50852928 -13.25022623 7.87060158 3.34901703 7.87060158 -19.18327425" stress="-0.00329925 -0.00101896 0.00061950 -0.00101896 -0.00183891 0.00145590 0.00061950 0.00145590 -0.00293640" Properties=species:S:1:pos:R:3
Ge 16.75495291 0.02425330 10.83831095
Ge 16.88411420 -0.08404558 0.58445590
Ge -2.21938735 3.83211547 10.69849047
Ge -1.98876737 3.69927515 -0.05268666
Ge -4.33741417 7.50826853 10.59449056
Ge 12.72804338 7.17009204 0.22576518
Ge -6.44644559 11.36536235 10.51756418
Ge 10.49903657 11.01155752 21.59658755
Ge 3.92569731 0.14634946 10.84205447
Ge 4.25421679 0.00957311 0.07750175
Ge 1.91994183 3.70438060 10.73152860
Ge 1.88895790 3.85915538 21.51837593
Ge -0.11794852 7.38117003 10.55130088
Ge 0.02499782 7.39789258 0.21738137
Ge -2.04569357 11.12896178 10.43431221
Ge -2.25697146 11.23644294 21.28781382
Ge 0.04730487 14.66307634 10.46146508
Ge 6.18122430 3.69964392 10.63962914
Ge 6.44373206 3.61757117 0.08753370
Ge 4.17155151 7.46512993 10.73904511
Ge 4.26455647 7.55275081 0.10973735
Ge 2.12860287 10.83434941 10.74881353
Ge 1.99712468 11.23987193 21.45285531
Ge 4.39709914 14.71651246 10.49240644
Ge 4.42274388 14.64399768 -0.03599831
Ge 10.56070382 3.70767559 10.91074753
Ge 10.76865773 3.45520810 0.22740764
Ge 8.46013542 7.32110488 10.95620877
Ge 6.50295715 11.02871957 10.62751193
Ge 6.35697004 11.10663311 21.43537290
Ge 2.00650520 1.30597828 3.56365542
Ge 2.09448291 1.32243867 14.46323869
Ge -0.10384920 5.07073683 3.49051868
Ge -0.35742371 4.89574459 14.29549224
Ge -2.01010896 8.71995088 3.46792222
Ge -2.28477430 8.48319513 14.37053861
Ge -4.01250974 12.16365948 3.38580388
Ge -4.28359703 12.44892763 14.18425949
Ge 6.24835424 1.23492413 3.52782952
Ge 6.06383664 1.10582469 14.58737569
Ge 4.13543572 5.06637895 3.64203344
Ge 4.18413081 5.11529048 14.47614729
Ge 1.88959241 8.66076950 3.67542276
Ge 1.97884971 8.64060923 14.30602687
Ge 0.00667241 12.22790775 3.42028637
Ge -0.05969783 12.21495507 14.40389291
Ge 10.61346185 1.07935410 3.75415177
Ge 10.38089184 1.09749713 14.42585945
Ge 8.39695803 4.89315327 3.71135367
Ge 8.17138126 4.80014355 14.58543015
Ge 6.36103852 8.63618963 3.37112798
Ge 6.31406459 8.55460880 14.45799394
Ge 4.18701385 12.47544242 14.26316044
Ge 15.07839469 0.98302655 3.89005499
Ge 14.65322090 1.32769484 14.53281203
Ge 12.88852045 4.58617110 3.80765464
Ge 12.54119270 4.78610155 14.62709257
Ge 10.78826303 8.55733316 3.54224196
Ge 10.56163989 8.55004104 14.56786537
Ge 8.57922309 12.13318832 3.59933075
Ge 8.39455508 12.31641742 14.41321762
Ge -0.20652258 2.46067015 17.95223651
Ge -2.13830204 6.13294219 7.03372574
Ge -2.10135540 6.22701481 17.87077602
Ge -4.35103340 9.80835095 6.88570025
Ge -4.46112655 9.79400561 18.02838924
Ge -6.20615114 13.62920500 6.78743818
Ge -6.32760198 13.47351938 17.81322370
Ge 4.12618341 2.33173102 7.04284735
Ge 3.95296961 2.42463804 18.30681137
Ge 2.11840473 6.17259448 6.89758251
Ge 1.94353342 6.22451397 17.88466425
Ge -0.19589094 10.04454430 18.19917614
Ge -2.20631481 13.51226745 6.86789025
Ge -2.00398283 13.41156159 17.66053628
Ge 8.37182348 2.18061357 7.11306478
Ge 8.16379042 2.43165194 18.36304572
Ge 6.18730960 6.03848308 7.23527794
Ge 6.25447616 6.17078274 18.27689025
Ge 4.24547860 9.78576299 7.15879003
Ge 4.11207562 9.89067786 18.11590465
Ge 2.33888742 13.64493686 6.91631623
Ge 2.27531130 13.71283885 17.96719098
Ge 12.78808227 2.39322314 7.40260513
Ge 12.41822732 2.43589589 18.37398038
Ge 10.44519088 6.17909186 7.15229572
Ge 10.35347433 6.10510213 18.06309666
Ge 8.48421833 9.74135502 7.06014924
Ge 8.24601783 9.93428758 18.04303709
Ge 6.49273275 13.60913819 6.91378956
Ge 6.55197253 13.54754710 17.90435402
Te 8.68070706 0.01592324 0.29305479
Te 8.70095455 7.25914636 0.17063081
Te 4.14398718 12.28971685 3.63046188
Te 0.06018133 2.48183857 7.13025119
Te 0.15881818 9.83046271 7.18901376
Te 2.02359891 1.29962641 9.12807904
Te 1.89025817 1.27953810 19.96291581
Te -0.08776017 4.99094276 9.12494920
Te -0.24404893 4.98324342 19.92523992
Te -2.32732590 8.62509793 9.03420485
Te -2.35136251 8.56163583 19.96092902
Te -4.21092423 12.56484460 9.10733336
Te -4.45780726 12.36499264 19.75963628
Te 6.17917821 1.23056048 9.34530416
Te 6.10654046 1.34222015 20.11085176
Te 4.03696982 5.01865662 9.27377044
Te 4.08558428 4.96151912 20.09008327
Te 2.17070936 8.53022941 9.16729969
Te 1.89795219 8.74355081 19.89999600
Te -0.04897590 12.37978737 8.99755747
Te -0.05350596 12.46981043 19.82741774
Te 10.50495241 1.26881601 9.43540394
Te 10.43298358 1.27349985 20.11026332
Te 8.47710069 4.98265862 9.39690038
Te 8.38159485 4.84177194 19.96589198
Te 6.38326420 8.46799006 9.30571368
Te 6.08007294 8.78846496 19.89895273
Te 4.28921306 12.16170768 9.09588248
Te 4.13795723 12.42216419 19.95254486
Te 14.73373564 1.23303955 9.36003953
Te 14.54718708 1.29837824 20.41385306
Te 12.64188717 4.84814063 9.44681851
Te 12.53292103 4.84640008 20.26631300
Te 10.60353528 8.70239404 9.50095411
Te 10.48193191 8.69808941 20.05008601
Te 8.50558230 12.25724174 9.28203833
Te 8.51024801 12.42784847 19.98386400
Te 0.19357024 2.62813741 1.90157496
Te -0.04374127 2.50161522 12.72099557
Te -2.10242598 6.35042663 1.85652383
Te -2.24967409 6.10547095 12.85004853
Te -4.14806763 9.85313033 1.69143977
Te -4.37100133 9.79556675 12.81841934
Te -6.09085875 13.48033812 2.09968157
Te -6.50251902 13.68560058 12.70464292
Te 4.35861700 2.33416037 2.02832514
Te 4.26665531 2.56091695 13.00571360
Te 2.18331766 6.21287342 1.96649623
Te 1.95630774 5.99959007 12.84715140
Te 0.13487100 9.88393199 1.96306063
Te -0.02619632 9.79719313 12.86049862
Te -1.82563135 13.38302480 1.82376467
Te -2.14042569 13.54447375 12.69014751
Te 8.37736612 2.56469286 2.28848985
Te 8.29096616 2.36164574 12.97934848
Te 6.28455177 6.16724162 1.95421096
Te 6.26391137 6.20746173 12.88833585
Te 4.22569711 9.71519697 1.90247338
Te 4.17389870 9.76980434 12.71982680
Te 2.27792135 13.47827747 1.77852200
Te 2.09371626 13.55922497 12.62103236
Te 12.87449437 2.27385607 2.27701243
Te 12.62444134 2.49475179 12.98426141
Te 10.78532506 6.00897513 2.23974328
Te 10.52650698 6.00365005 13.10913552
Te 8.62405640 9.90606627 1.91067626
Te 8.40280704 9.70290920 13.00982131
Te 6.72515379 13.48735478 1.95643892
Te 6.44081486 13.65075089 12.82766798
Te 8.71435405 14.54746485 5.49241712
Te -8.47655838 14.84262384 16.16785000
Te 14.83032701 3.57328688 5.73816566
Te -2.23792356 3.75820774 16.39399369
Te -4.16936349 7.50453488 5.41460126
Te -4.30247123 7.33557340 16.26498906
Te -6.30688870 11.18741568 5.46780185
Te 10.54764012 10.96243312 16.64648069
Te -4.18861228 14.73889809 5.26845605
Te -4.17845861 14.83935468 16.16816450
Te 2.08500709 3.70765779 5.43916253
Te 1.97614257 3.60500671 16.56021680
Te -0.09258356 7.31433879 5.45191744
Te -0.09594235 7.48646882 16.35142482
Te -2.25085617 11.05921467 5.52734040
Te -2.04302669 11.01779296 16.14570805
Te 0.04330216 14.70322359 5.47855457
Te 8.33588522 0.10921229 16.50584644
Te 6.34665968 3.60976078 5.69489472
Te 6.11971761 3.78950836 16.55600552
Te 4.25796825 7.37187391 5.58346970
Te 4.07379798 7.50859701 16.55494268
Te 2.34880640 11.15853788 5.56935915
Te 2.26281968 11.20585390 16.27908705
Te 12.75978886 0.08119197 5.74505606
Te 12.60426616 0.08786791 16.77408669
Te 10.61390152 3.67950778 5.77553045
Te 10.57695107 3.74649617 16.52242253
Te 8.36779686 7.28823450 5.66073976
Te 8.25090222 7.36091808 16.60446897
Te 6.48983996 11.05548407 5.57101955
Te 6.15379722 11.10866448 16.33005850
192
Time=70000.00000007 pbc="T T T" Lattice="16.88844881 -0.19619178 -0.07306087 -8.36388592 14.77096477 -0.01402665 -0.19859861 -0.05772833 21.48874499" energy=-826.64974117 virial="1.58184121 -1.04816163 9.92105137 -1.04816163 2.66085709 6.83507188 9.92105137 6.83507188 -9.75361074" stress="0.00091862 -0.00019687 0.00186339 -0.00019687 0.00112128 0.00128377 0.00186339 0.00128377 -0.00121042" Properties=species:S:1:pos:R:3
Ge -0.05201188 -0.02418131 10.65681297
Ge 8.52271205 14.40583483 0.14109382
Ge -2.05628554 3.73812271 10.61281617
Ge -1.89766523 3.81401642 0.21117988
Ge 12.54291484 7.15287502 10.44235683
Ge -4.14523159 7.43115201 -0.00256337
Ge 10.38647222 10.99051256 10.69087112
Ge -6.37879086 10.89308492 21.46048559
Ge 4.07635758 0.06592218 10.73772688
Ge -4.15361484 14.69134012 -0.00673709
Ge 2.24148868 3.74669982 10.77430027
Ge 1.80271219 3.57924817 21.42828483
Ge -0.01085628 7.34028159 10.60112585
Ge 0.03127117 7.34696244 0.18571236
Ge -2.19968497 11.16311883 10.75059103
Ge -1.86498058 11.12474628 -0.00477184
Ge -0.11428462 14.60858567 10.72331370
Ge 6.22097541 3.43821321 10.61623721
Ge 6.22503646 3.52724268 0.00107659
Ge 4.25562350 7.09706776 10.47292423
Ge 4.25208595 7.29331150 0.18759874
Ge 2.22226195 11.09504596 10.61324192
Ge 2.02038656 10.74775544 21.43478311
Ge 4.31801735 14.49397431 10.56884296
Ge 3.96676132 14.47924517 21.37757940
Ge 10.39514215 3.71641016 10.63213124
Ge 10.71412165 3.26809980 0.02577726
Ge 8.37623226 7.05474991 10.64238647
Ge 6.30075639 10.87083224 10.56340823
Ge 6.59019676 11.02518492 0.12074068
Ge 2.06476334 1.07117746 3.57606531
Ge 1.98851760 1.42165991 14.31001301
Ge 0.00086153 4.96137991 3.79185636
Ge -0.05954501 4.93782874 14.38976819
Ge -1.97118217 8.77978341 3.50865452
Ge -2.21197712 8.67341517 14.26711223
Ge -3.96345174 12.31220727 3.60907425
Ge -4.30300380 12.30205510 14.38035074
Ge 6.32555594 1.24241863 3.50682522
Ge 6.35975556 1.03489393 14.39468619
Ge 4.18304241 4.76030343 3.61115801
Ge 4.03907486 4.83776847 14.40167840
Ge 2.14823650 8.51223627 3.31985462
Ge 2.18379429 8.62496512 14.20490293
Ge 0.12414981 12.23791416 3.62150521
Ge -0.01887535 12.15307147 14.43797951
Ge 10.49624718 0.91207358 3.45645219
Ge 10.32504497 1.19770431 14.26855837
Ge 8.50861090 4.82890500 3.52755344
Ge 8.37211600 4.81017801 14.45778110
Ge 6.43692213 8.51303606 3.44655436
Ge 6.48608014 8.31021883 14.30079017
Ge 4.11697173 12.28009937 14.18470420
Ge 14.59680875 1.03154761 3.44235589
Ge 14.65593446 1.18829701 14.05808043
Ge 12.58890640 4.49252338 3.49718752
Ge 12.73064341 4.68013699 14.28656256
Ge 10.59566760 8.27120623 3.51982927
Ge 10.55830910 8.42309751 14.32839169
Ge 8.39088842 12.15635021 3.61376095
Ge 8.30955954 12.14053124 14.30014858
Ge -0.11862240 2.35872564 17.99111570
Ge -2.14056797 6.20885186 7.06325563
Ge -2.15695592 6.10131650 17.81556127
Ge -4.15948282 10.06164149 7.10178536
Ge -4.42867400 9.66020123 18.07644947
Ge -6.37541648 13.54333804 7.22320480
Ge -6.28281385 13.35448617 17.89060387
Ge 4.07674199 2.25767706 7.09938428
Ge 4.15497184 2.18050483 18.21326379
Ge 2.03735243 6.03145113 6.99788393
Ge 2.03097124 6.05792626 17.82314790
Ge -0.13052391 9.77623602 17.81876150
Ge -2.08138694 13.65138288 7.05825684
Ge -1.99913540 13.51562993 17.78356875
Ge 8.38733464 2.15371859 7.03476575
Ge 8.31332459 2.60148219 18.15576908
Ge 6.21394150 5.99472776 6.91948362
Ge 6.15882185 6.00268845 17.85117782
Ge 4.22815765 9.42350872 6.96795071
Ge 4.21388980 9.73145073 18.14947281
Ge 2.21471953 13.46939192 6.89721841
Ge 2.21285539 13.33080450 17.88261489
Ge 12.64963391 2.30748312 7.00428259
Ge 12.50486407 2.05240145 18.07501198
Ge 10.62267052 5.93395141 7.08348984
Ge 10.44922482 5.96226283 18.21074350
Ge 8.44344323 9.62564928 7.13163647
Ge 8.16220799 9.73612887 17.94909528
Ge 6.31700842 13.28896558 6.95199143
Ge 6.32447277 13.30188619 17.86800319
Te 8.41592085 -0.08853238 0.03227045
Te 8.40171621 7.32760344 0.10068787
Te 4.22614961 12.06717476 3.66111458
Te -0.16364512 2.47500201 7.11765381
Te 0.07603174 9.85916772 7.24635575
Te 1.96110436 1.38174920 9.26659674
Te 1.92724930 1.08516010 19.91813170
Te 0.06024304 4.90548350 8.97996558
Te -0.15465534 4.94644007 19.93383990
Te -2.29171800 8.61784244 9.24890371
Te -2.19027440 8.54979651 19.91412988
Te -4.27296450 12.39878738 9.21892148
Te -4.23210838 12.23561118 19.86149373
Te 6.14737888 1.11535306 9.15693599
Te 6.09503076 1.00355286 19.90592175
Te 4.33254993 4.70283108 9.09283633
Te 3.89392317 4.68238513 19.81634269
Te 2.24216020 8.41989841 9.11577845
Te 1.95506353 8.32198392 19.96058740
Te -0.15882280 12.24276324 9.11737160
Te -0.10624616 12.19016353 19.86301919
Te 10.38067371 1.25496156 9.30069956
Te 10.29726832 1.04082403 19.72443221
Te 8.28034499 4.69794180 9.13093861
Te 8.32616423 4.65987064 19.95062228
Te 6.39940623 8.43767118 9.04841853
Te 6.07908677 8.30419228 19.76684942
Te 4.24182572 12.09905758 9.02802378
Te 4.15232561 12.01109140 19.95398165
Te 14.65146795 1.04120186 9.13955139
Te 14.65393480 1.00652062 19.81020275
Te 12.68054954 4.68516680 9.06906827
Te 12.46187484 4.68450325 19.95734400
Te 10.41688567 8.40402338 9.16332957
Te 10.39220627 8.35952771 19.80423874
Te 8.32519274 12.23952340 9.16453607
Te 8.37939096 12.05230793 19.98745367
Te -0.14046405 2.40913869 2.02731653
Te -0.08384703 2.37890807 12.68137891
Te -2.10934518 6.21767615 2.06528989
Te -2.17976889 6.18967554 12.78142939
Te -4.23231273 9.79262035 2.09223772
Te -4.35941201 9.73715787 12.79888291
Te -6.34308501 13.43224901 2.14147403
Te -6.33361738 13.39444907 12.84552950
Te 4.14303651 2.43059598 1.89207336
Te 4.11134927 2.43948676 12.81610183
Te 2.08103581 5.93621291 2.00573104
Te 2.05187363 6.17652615 12.83804581
Te 0.00127743 9.90444291 1.94036482
Te -0.13867647 9.83473025 12.68818517
Te -2.07897038 13.46744148 1.93210240
Te -2.14654544 13.49311330 12.94227316
Te 8.47529674 2.32238476 2.07939900
Te 8.33902215 2.30527767 12.78638700
Te 6.34143961 5.93392632 2.09619801
Te 6.21039586 5.99493998 12.84449097
Te 4.28906368 9.64227925 1.84121240
Te 4.07905666 9.71802794 12.55760452
Te 2.18809026 13.34449731 1.84030777
Te 1.91369322 13.44800246 12.69245224
Te 12.74353129 2.18365400 1.79931521
Te 12.40803807 2.34344694 12.70912953
Te 10.52058888 5.93266484 1.90829456
Te 10.38990922 5.90420287 12.96610842
Te 8.47121328 9.69612033 1.92444916
Te 8.39185931 9.68784262 12.77843138
Te 6.47210607 13.29825651 1.83445726
Te 6.32236826 13.34065487 12.79351919
Te 8.42360694 14.50264796 5.40131284
Te -8.38554260 14.66283639 16.47871057
Te 14.65642219 3.46656327 5.29601011
Te -2.20419495 3.60232483 16.36701181
Te -4.19347023 7.44802302 5.53045915
Te -4.29555387 7.37180392 16.35266321
Te -6.39475230 11.22572230 5.78574097
Te 10.33470449 10.81650367 16.40458212
Te -4.22891179 14.70034664 5.65169594
Te -4.16862464 14.63419361 16.40205898
Te 2.08583911 3.64159299 5.45386613
Te 1.97624472 3.51529441 16.45025118
Te 0.02729679 7.21332917 5.52335382
Te -0.16821809 7.21023447 16.27769345
Te -2.17216305 11.17134946 5.53908651
Te -2.21313365 10.84140659 16.49259695
Te 0.18697442 14.60187661 5.49369736
Te 8.39130936 -0.12266458 16.30333259
Te 6.32858113 3.43666314 5.62212177
Te 6.00013354 3.49709237 16.34620348
Te 4.12232002 7.21066859 5.43183761
Te 3.98749196 7.47289574 16.24197263
Te 2.07161742 10.91618148 5.40409029
Te 1.98860968 10.94360711 16.32274349
Te 12.66169865 0.00802331 5.52691176
Te 12.47884448 -0.08811013 16.38911310
Te 10.56274943 3.47092537 5.48230982
Te 10.39579944 3.46959655 16.38567694
Te 8.53824940 7.34343286 5.63297620
Te 8.44999140 7.24068160 16.38684612
Te 6.41554405 10.89413662 5.50764102
Te 6.17038781 10.90360244 16.38051286
192
Time=80000.00000008 pbc="T T T" Lattice="17.04214564 -0.18544291 -0.05344941 -8.31712163 14.85607482 -0.10784398 0.15124564 0.03694947 21.27795106" energy=-826.14776391 virial="-6.39023468 -2.02817947 -2.43185906 -2.02817947 -8.56373281 -4.00695299 -2.43185906 -4.00695299 -2.58229721" stress="-0.00057532 -0.00037870 -0.00045408 -0.00037870 -0.00098115 -0.00074818 -0.00045408 -0.00074818 0.00013570" Properties=species:S:1:pos:R:3
Ge -8.10989835 14.86313014 10.44378907
Ge 8.61732699 14.42307621 0.04569417
Ge 14.99174197 3.45240616 10.47284674
Ge -1.78376178 3.72844637 21.14726931
Ge -3.91848986 7.35006976 10.53250205
Ge -4.18896534 7.48699559 0.01476190
Ge -6.18536237 11.24111897 10.44985144
Ge 10.70449470 11.05743463 -0.03975475
Ge -4.10071569 14.72467439 10.38162077
Ge -4.01381002 14.75911460 0.00967543
Ge 2.22075816 3.71157300 10.52484360
Ge 2.36113624 3.60185076 21.15383387
Ge 0.17368235 7.15029383 10.56480016
Ge 0.18955476 7.39470673 0.10994499
Ge -1.72996992 11.07767584 10.35604908
Ge -1.65889526 11.05541514 21.15255453
Ge 0.16260548 14.73355249 10.54686606
Ge 6.53876246 3.85572737 10.58055808
Ge 6.62152948 3.74136059 21.03111011
Ge 4.41994100 7.50653580 10.51515125
Ge 4.35658758 7.39258468 0.06366703
Ge 2.57512778 11.18250577 10.48790354
Ge 2.28496283 11.11226941 0.04429496
Ge 4.47883984 14.71291787 10.40046365
Ge 12.65592858 -0.01063700 0.00030971
Ge 10.61828251 3.70189503 10.61024343
Ge 10.68885022 3.62722358 0.02041656
Ge 8.65467079 7.36925331 10.59612731
Ge 6.54472253 11.20758459 10.45269286
Ge 6.43812595 11.15845406 21.05237146
Ge 2.16957472 1.53829208 3.44594968
Ge 2.37273740 1.30747867 14.20761217
Ge 0.24490888 5.20084007 3.56485463
Ge 0.49694687 4.97497922 14.21688448
Ge -1.77823603 8.68029625 3.55777081
Ge -1.84870401 8.70134145 14.13972111
Ge -3.97748750 12.31432175 3.48583185
Ge -3.96965718 12.55646088 14.17518368
Ge 6.26937938 1.23762706 3.36007178
Ge 6.37306461 1.13341213 14.03334868
Ge 4.33447132 5.05870083 3.50833014
Ge 4.59743781 4.89314498 14.19023372
Ge 2.42114290 8.64551209 3.47737458
Ge 2.30221443 8.56550219 14.06102849
Ge 0.04074658 12.35524051 3.60925198
Ge 0.26587284 12.24337339 14.09257710
Ge 10.67050214 1.24603530 3.30841103
Ge 10.91338035 1.21306241 14.38543864
Ge 8.54382115 4.94549768 3.41413129
Ge 8.73648441 4.88376737 14.13969172
Ge 6.48093749 8.73660668 3.34522689
Ge 6.70065442 8.85050763 14.19391272
Ge 4.39523541 12.50055684 14.05372269
Ge 14.93579670 0.99480555 3.39811593
Ge 15.09147622 1.35372824 14.04460186
Ge 12.80788065 4.79807907 3.51262643
Ge 13.13598752 4.75763841 14.31732565
Ge 10.75672053 8.58088297 3.37412048
Ge 10.81965909 8.68023379 14.11951561
Ge 8.69313682 12.12227623 3.32533862
Ge 8.67756671 12.29058177 14.18442757
Ge 0.28972751 2.33889434 17.56197762
Ge -1.96436632 6.05074164 6.98811218
Ge -1.75253799 6.31873204 17.69273539
Ge -3.95158142 9.83947007 7.22826928
Ge -4.04320514 9.92557111 17.94759482
Ge -6.14588427 13.65838160 6.89430418
Ge -6.07090631 13.53350569 17.81066025
Ge 4.14801439 2.48049126 6.89700048
Ge 4.65326692 2.32614899 18.01516589
Ge 2.40282880 6.36286537 7.15624957
Ge 2.39542182 6.13852479 17.67028537
Ge 0.40324049 9.94990800 17.82453811
Ge -2.00440087 13.62785747 6.81705821
Ge -1.89362957 13.52894748 17.61357748
Ge 8.38583814 2.21355817 6.92152841
Ge 8.72100523 2.53964910 17.67939437
Ge 6.43950464 6.28408419 6.75586823
Ge 6.63315485 6.10128219 17.83728554
Ge 4.58161709 9.97907179 7.00586927
Ge 4.72308069 9.75108005 17.63820081
Ge 2.19383954 13.62541869 6.70157124
Ge 2.36868590 13.66227059 17.48775637
Ge 12.76070195 2.15699561 6.83702377
Ge 13.03248794 2.23777783 17.89903903
Ge 10.66582232 6.24634146 6.83813259
Ge 10.80059324 6.09947698 17.73326109
Ge 8.77701778 9.94621007 6.90635942
Ge 8.93307973 9.80071486 17.80606618
Ge 6.62838382 13.48847041 6.78427098
Ge 6.58427211 13.55041723 17.57948777
Te 0.18032239 14.68399734 0.05953948
Te 8.73411808 7.26557808 0.00480938
Te 4.24010972 12.19981306 3.56462986
Te 0.06993577 2.36309018 7.06165544
Te 0.19073116 9.95424204 7.15311768
Te 2.18420395 1.19445927 9.02840786
Te 2.30141969 1.14368499 19.67653396
Te 0.02080675 4.82594184 8.95228220
Te 0.20739797 4.95901209 19.76104489
Te -2.04630652 8.56629888 8.93128192
Te -1.94037075 8.65353132 19.78417807
Te -4.04892981 12.33394075 8.90955849
Te -3.88623239 12.43569836 19.74322582
Te 6.48163349 1.26419394 9.16343634
Te 6.56194708 1.25728402 19.67866030
Te 4.49954500 4.99267572 9.07197340
Te 4.27011408 4.86084791 19.64936141
Te 2.36084656 8.48539778 9.07191766
Te 2.36789004 8.60222483 19.67879781
Te 0.26461078 12.45188693 8.80843653
Te 0.44184420 12.28097686 19.57697277
Te 10.60759967 1.08093145 9.05624333
Te 10.92126238 1.25625692 19.59395573
Te 8.67357149 4.97706857 9.02463724
Te 8.80123950 4.79580781 19.58192228
Te 6.67668643 8.59115720 9.04523116
Te 6.69357325 8.60829735 19.59240225
Te 4.43409519 12.29828777 8.84724173
Te 4.54410265 12.27833996 19.55850733
Te 14.92609917 0.97463817 8.96831611
Te 15.12326526 0.90859380 19.66810325
Te 12.92587263 4.60319640 9.02595267
Te 12.97498483 4.77543664 19.63440346
Te 10.89197746 8.51929381 9.07968047
Te 10.95813300 8.52654470 19.67438491
Te 8.75434442 12.30109243 8.86603745
Te 8.94050920 12.12604343 19.62776314
Te 0.09144453 2.39883278 1.90660129
Te 0.21216432 2.50132601 12.60379370
Te -2.23407340 6.18331372 2.05433806
Te -1.86695770 6.21440230 12.68230107
Te -4.02155737 9.85822381 1.95652063
Te -4.09397877 9.78567729 12.70396562
Te -6.19823952 13.53850903 1.90572311
Te -6.09077003 13.54564684 12.58882458
Te 4.24549535 2.61658404 1.87500793
Te 4.26971553 2.28164264 12.64651067
Te 2.17569335 6.09564528 1.84995553
Te 2.59569296 6.20943937 12.59092873
Te 0.28992464 9.71498577 1.93914540
Te 0.24264451 9.87701787 12.61045241
Te -2.08084286 13.62665139 1.94272262
Te -1.78352927 13.55177104 12.57332479
Te 8.45399143 2.44924564 1.91030446
Te 8.66798342 2.29748894 12.67939134
Te 6.43431611 6.08918772 1.86209009
Te 6.58429174 6.16627828 12.74896566
Te 4.43960092 9.75395115 1.73068277
Te 4.59032778 9.89114260 12.61166150
Te 2.20228005 13.49637090 1.86512432
Te 2.37613213 13.50000156 12.50124144
Te 12.72406456 2.38214706 1.82943645
Te 12.99609868 2.22478661 12.74838726
Te 10.71603044 6.10064230 1.99671527
Te 10.87000445 6.01494443 12.78779981
Te 8.67070088 9.76116686 1.95481952
Te 8.81512164 9.89942827 12.59707875
Te 6.52436493 13.28203126 1.90937748
Te 6.75849471 13.56764316 12.58068993
Te 8.66931625 14.59236926 5.32813903
Te -8.07304294 14.69771995 16.22693686
Te 14.79738030 3.46936271 5.27844887
Te -1.91391648 3.92459976 16.27678108
Te 12.82190609 7.28021809 5.28133926
Te -3.81618358 7.40321876 16.25591409
Te -6.09668763 11.18682441 5.53183379
Te -5.97383389 11.09767302 16.28944982
Te -4.17048537 14.79436661 5.40343538
Te -3.98159008 14.73693372 16.12789219
Te 2.20042161 3.82744108 5.44914541
Te 2.31613898 3.65978040 16.18762069
Te 0.11167874 7.34597006 5.52311235
Te 0.35581592 7.39727068 15.96085537
Te -2.07765208 11.11115720 5.46591639
Te -1.85527049 10.92644729 16.30392966
Te 0.03823299 14.77287202 5.23295450
Te 8.47139154 -0.01220284 16.19225452
Te 6.31040608 3.53170413 5.46130262
Te 6.48916030 3.53015715 16.22428465
Te 4.33508522 7.41893652 5.33272463
Te 4.60843865 7.25892919 16.12004717
Te 2.35863435 10.89900764 5.59509937
Te 2.43100903 11.06051217 16.25029547
Te 4.37319510 14.70182058 5.35873706
Te 12.85750482 -0.10537762 16.06662867
Te 10.65980228 3.61179832 5.55804579
Te 10.91568302 3.60125833 16.23880341
Te 8.49753060 7.40704315 5.37296313
Te 8.68293986 7.25514372 16.18092076
Te 6.54189983 11.00860074 5.43711887
Te 6.82310591 10.87378402 16.19280927
192
Time=90000.00000003 pbc="T T T" Lattice="17.06895289 -0.30439454 0.01043701 -8.23056423 14.96041662 -0.03389890 0.08583576 0.26862088 21.27438743" energy=-826.24605083 virial="-5.77892034 -0.78607056 -1.98110857 -0.78607056 -16.56371633 -8.41178152 -1.98110857 -8.41178152 0.84604196" stress="-0.00045898 -0.00014608 -0.00036816 -0.00014608 -0.00246316 -0.00156319 -0.00036816 -0.00156319 0.00077216" Properties=species:S:1:pos:R:3
Ge 0.14963971 0.24582388 10.61845883
Ge 8.66333290 14.46534250 0.12332629
Ge 14.99881012 3.58728725 10.64649404
Ge 14.78599735 3.44519485 0.13508280
Ge -4.13612304 7.73251692 10.66226488
Ge -3.79881364 7.57717969 0.24660463
Ge 10.85373073 11.20091803 10.50515236
Ge -5.92629012 11.49887906 21.07233161
Ge 4.13406090 0.07479271 10.50314238
Ge -3.82352367 15.00475993 21.21822332
Ge 2.32191798 3.70817742 10.42214850
Ge 2.03096319 3.40144477 0.04484556
Ge 0.11501380 7.40934479 10.58446961
Ge 0.14827161 7.44154017 0.11428001
Ge -1.95770868 11.37801015 10.43236289
Ge -1.70164794 11.37974074 21.18820231
Ge 0.39637454 14.83382563 10.62022619
Ge 6.67038873 3.52701100 10.56505310
Ge 6.51365153 3.78425038 21.24441525
Ge 4.36806111 7.58336417 10.48690237
Ge 4.50482431 7.57310011 21.22690921
Ge 2.39184921 11.33468052 10.56720019
Ge 2.47219740 11.33336634 21.17382474
Ge 4.75077954 14.82374394 10.40668330
Ge 4.57213267 14.59626170 0.00126890
Ge 10.97570011 3.53536000 10.55499753
Ge 10.77970469 3.29952694 0.01750009
Ge 8.59297590 7.38895636 10.56289907
Ge 6.67954664 11.18194128 10.29872322
Ge 6.42723013 10.79143775 0.01384853
Ge 2.05568255 1.11394942 3.56946120
Ge 2.09824049 1.33924221 14.25193038
Ge 0.05050038 5.02709969 3.63387249
Ge 0.13679311 5.13943069 14.42368602
Ge -1.79542634 8.98118527 3.52351516
Ge -2.02627752 8.94335833 14.22174268
Ge -4.03173144 12.46537301 3.68866203
Ge -3.99921990 12.58953377 14.13274809
Ge 6.34127166 1.24382835 3.51216752
Ge 6.45597218 1.21046253 14.29499733
Ge 4.44200903 4.90130882 3.57715370
Ge 4.28152305 5.18281885 14.09779549
Ge 2.28828099 8.58284757 3.56939956
Ge 2.24320867 8.76622236 14.05676625
Ge 0.34687910 12.57828344 3.50919745
Ge 0.27015560 12.36901811 14.17977718
Ge 10.77791602 0.99720658 3.55431126
Ge 10.75258097 1.09761505 14.21521233
Ge 8.65587476 4.76955062 3.31291053
Ge 8.63657334 4.96321469 14.10322537
Ge 6.75728820 8.53162146 3.55464238
Ge 6.43229570 8.99863462 14.08510211
Ge 4.59467522 12.42390789 14.16987141
Ge 14.86212675 0.79489796 3.55998940
Ge 15.10275784 1.08297914 14.12564282
Ge 12.85361290 4.55495703 3.59705992
Ge 12.96393705 4.89835228 14.13657929
Ge 10.97068607 8.47428887 3.25073390
Ge 10.87221068 8.48268836 14.31018477
Ge 8.83506221 12.15846726 3.39407606
Ge 8.85378530 12.29083174 14.27377312
Ge 0.07287717 2.48745456 17.85150920
Ge -1.93494174 6.24463006 6.86699342
Ge -2.00636434 6.17722820 17.90976618
Ge -4.13349389 9.80937798 7.02559690
Ge -4.16233930 10.06416529 17.77845861
Ge -6.08189979 13.74112262 6.96421849
Ge -6.16064003 13.77529463 17.79806153
Ge 4.44821385 2.61609488 7.07199503
Ge 4.47123273 2.55240095 18.01190694
Ge 2.45857609 6.26001883 6.99291883
Ge 2.32265953 6.51175154 17.73538283
Ge 0.18703177 10.40147239 17.74489220
Ge -1.84436792 13.84403649 6.81204666
Ge -1.67411450 14.05874012 17.92085261
Ge 8.74507361 2.21337350 7.12931899
Ge 8.66134196 2.62506984 17.77548228
Ge 6.64608414 6.24045958 6.96521196
Ge 6.41075121 6.22115669 17.74058924
Ge 4.52817811 9.97906637 6.83519798
Ge 4.39048908 9.78919134 17.99819052
Ge 2.29541688 13.64890571 6.99471619
Ge 2.49766505 13.57262352 17.70890995
Ge 13.05890872 2.36298041 6.99377738
Ge 12.77897119 2.53646925 17.85706701
Ge 11.08559448 5.94792519 7.05564016
Ge 10.60633890 6.14390489 17.87195048
Ge 8.63960237 9.87791039 6.94698651
Ge 8.84924107 9.67337746 17.89374414
Ge 6.78458917 13.46506109 6.95851509
Ge 6.53038125 13.51921659 17.90310204
Te 0.47171034 14.72987375 0.12908130
Te 8.74136863 7.10626925 0.12396198
Te 4.36879704 12.27178128 3.62241521
Te 0.14973925 2.54060372 6.97385326
Te 0.20661459 10.01091745 6.92434064
Te 2.12396862 1.30891052 9.00592568
Te 2.13326150 1.32590452 19.95732632
Te 0.04854592 5.05407297 9.08817022
Te 0.24824321 5.29748572 19.86128920
Te -2.00244290 8.86552962 9.12069960
Te -1.79603088 9.07190988 19.69842083
Te -4.05367606 12.64534617 8.98878818
Te -3.88931212 12.65397255 19.59742504
Te 6.43106101 1.19449877 9.10052602
Te 6.45795405 1.43250747 19.72831502
Te 4.44414344 5.07387322 9.09037258
Te 4.44693695 5.05937279 19.85694964
Te 2.34515395 8.72513669 9.07656372
Te 2.40496654 8.87181215 19.83351216
Te 0.23257375 12.49202728 9.04382731
Te 0.43764961 12.66558932 19.60121734
Te 10.86067314 1.19755438 9.06510059
Te 10.97726750 1.37278531 19.56182982
Te 8.77601035 4.87557239 9.06290985
Te 8.72589676 4.80957011 19.65636161
Te 6.67194004 8.57312710 8.99187256
Te 6.56740053 8.67678946 19.70569535
Te 4.51818633 12.43554249 8.90432080
Te 4.52833027 12.45328038 19.68458379
Te 15.00005636 1.18095175 9.09313065
Te 15.10838806 1.27196769 19.84696596
Te 12.96631211 5.00970594 9.24216769
Te 13.06141332 5.03696274 19.85557049
Te 10.82920441 8.70029302 9.04973874
Te 11.09816863 8.78716637 19.66488136
Te 8.77145806 12.53134854 9.05174997
Te 8.92066201 12.46688077 19.65716851
Te 0.10330108 2.39154872 2.16518019
Te 0.05880576 2.68865400 12.77371092
Te -1.93106871 6.28490239 2.06755766
Te -1.92084698 6.30448471 12.80717268
Te -4.00088706 10.07852570 1.89893869
Te -4.14428026 10.11075643 12.68571753
Te -6.12652052 13.73595483 2.05892832
Te -6.04872304 13.96210145 12.80670933
Te 4.38059655 2.39486801 2.00274078
Te 4.16414481 2.62469020 12.94048765
Te 2.33500770 6.26010617 2.16902719
Te 2.25305035 6.36510174 12.55419826
Te 0.23625025 9.96739770 1.99118937
Te 0.16882102 9.97636176 12.58554732
Te -2.13326539 13.69536128 2.04783091
Te -1.69188972 13.81436826 12.70770474
Te 8.57163126 2.30649132 2.00431410
Te 8.70153418 2.43062759 12.71837594
Te 6.58112803 6.11260253 1.94831472
Te 6.65809696 6.24482530 12.68760504
Te 4.66609050 9.65074108 1.83622155
Te 4.57745276 10.06950009 12.57209801
Te 2.48032967 13.58163309 1.84830958
Te 2.49286338 13.57158600 12.74931912
Te 12.85473423 2.15234390 1.98703264
Te 13.02826981 2.33259917 12.82435538
Te 10.83132188 5.92245681 1.86236379
Te 10.90455435 6.12398148 12.83361124
Te 8.67108048 9.86075895 1.94195944
Te 8.83127874 9.86123229 12.65048847
Te 6.70441673 13.44416798 1.99222856
Te 6.72147682 13.60915864 12.68992971
Te 8.86423812 14.61041688 5.44537214
Te 8.82562459 14.74882189 16.37111169
Te -1.97517815 3.76985325 5.32799697
Te -1.92976099 3.91798198 16.41040069
Te -4.07786603 7.59496598 5.37955105
Te 12.87266073 7.45661645 16.26269875
Te 10.88111266 10.91445918 5.47422010
Te 10.85407549 11.11383293 16.33866177
Te 4.21695114 0.04945393 5.50774547
Te 4.38245903 0.24843393 16.33191733
Te 2.35392300 3.83895474 5.46296978
Te 2.26515087 3.91597693 16.25413831
Te 0.19073227 7.29617206 5.48902352
Te 0.17846782 7.60347509 16.22969157
Te -2.14080966 11.31905563 5.48816840
Te -1.84416987 11.54898359 16.21279591
Te 0.41518715 14.78056977 5.51985872
Te 8.61989594 0.15895296 16.29163847
Te 6.71727098 3.53448755 5.67658606
Te 6.47198940 3.79278721 16.30938292
Te 4.56616845 7.48362432 5.39763046
Te 4.43038974 7.54919260 16.27374260