192
Time=60000.00000005 pbc="T T T" Lattice="17.10279296 -0.01046676 0.08564955 -8.29528854 14.96703795 -0.15981460 0.16788397 0.21239038 20.95972263" energy=-823.26960385 virial="-4.37076527 -0.96802679 -8.70863012 -0.96802679 -12.74905910 -3.15584283 -8.70863012 -3.15584283 -5.63251996" stress="0.00011054 -0.00018049 -0.00162378 -0.00018049 -0.00145165 -0.00058843 -0.00162378 -0.00058843 -0.00012473" Properties=species:S:1:pos:R:3
Ge 8.70177945 14.96645596 10.55212650
Ge 8.44402037 14.76802134 -0.01042163
Ge -1.81339564 3.75161374 10.48825131
Ge 15.03665765 3.37587052 0.09656500
Ge -4.11206310 7.73815921 10.30554881
Ge 13.01597377 7.31544670 0.21317775
Ge 10.78571151 11.41618815 10.41238551
Ge 10.87416919 11.11909812 0.32515579
Ge -3.91994640 14.92935322 10.54811610
Ge -4.27751770 14.76446346 -0.11226906
Ge 2.20116027 3.82584558 10.65517692
Ge 2.16398621 3.70646442 0.35285341
Ge 0.06169065 7.56169579 10.42878401
Ge -0.15144336 7.25305375 0.05394822
Ge -1.92620797 11.33372371 10.27918692
Ge -1.84369364 10.82875170 0.12828827
Ge 8.61348282 0.10699838 10.53841660
Ge 6.67261508 3.77666902 10.78557717
Ge 6.38619719 3.85769994 0.51287978
Ge 4.45047314 7.48618958 10.43034544
Ge 4.33509942 7.62200196 0.07494545
Ge 2.45963566 11.36780868 10.66886959
Ge 2.36807633 10.91664016 0.13646674
Ge 13.18432242 0.16964761 10.58270499
Ge 4.35172168 14.60285475 -0.08637270
Ge 10.97404384 3.71400668 10.45665302
Ge 10.84894703 3.47301072 0.20501604
Ge 8.77057285 7.61496562 10.69964187
Ge 6.42360678 11.33729792 10.28153492
Ge 6.32921804 11.10236399 0.08569197
Ge 2.13077793 1.16335825 3.77247113
Ge 2.17577695 1.26998020 14.04744215
Ge 0.33206858 5.05487530 3.66751490
Ge 0.28000051 5.03124934 13.92223586
Ge -1.92892753 8.55099781 3.47693727
Ge -1.91542403 8.92214743 14.08434424
Ge -3.85728909 12.38134527 3.64384437
Ge -3.81882550 12.54606536 13.99970512
Ge 6.28185623 1.00874786 3.48070766
Ge 6.50910976 1.13462902 14.21204802
Ge 4.29182068 4.71696691 3.48126950
Ge 4.38465841 4.98813599 14.12619043
Ge 2.39686624 8.51876037 3.65593660
Ge 2.11320716 8.92150791 14.17328011
Ge 0.15366830 12.41808480 3.36200583
Ge 0.43040011 12.57920876 14.24372637
Ge 10.70807287 1.04552912 3.62513213
Ge 10.83704699 1.05616353 14.15765479
Ge 8.43131614 4.99316422 3.54890928
Ge 8.50609253 5.07720894 14.31253415
Ge 6.49499934 8.71789265 3.62573317
Ge 6.68231317 9.01766641 14.31509996
Ge 4.45474482 12.44149542 14.14539219
Ge 15.08088276 1.13622528 3.70244256
Ge 14.99720406 1.46792498 14.14911946
Ge 12.92576958 4.80273181 3.46408689
Ge 13.15274927 5.22732670 14.06150893
Ge 11.02741569 8.71047110 3.63063827
Ge 10.83890524 8.84596447 13.97563457
Ge 8.61082231 12.52255027 3.51246645
Ge 8.60804759 12.55235499 14.31623419
Ge 0.09151986 2.61616936 17.63803767
Ge -1.97504318 6.18912263 6.97463462
Ge -1.87340588 6.30468507 17.61041052
Ge -4.19983958 9.84485972 6.71038897
Ge -4.17268366 10.10934520 17.59810708
Ge -6.38254313 13.92935040 6.94895900
Ge -6.05371996 13.77774997 17.52257758
Ge 4.22799927 2.48474775 7.49778160
Ge 4.47678415 2.61804623 17.95760172
Ge 2.16948325 6.30559344 7.03413268
Ge 2.44340752 6.29997525 17.48294397
Ge 0.08657987 10.16968118 17.58841708
Ge -1.96432935 13.77404839 6.98710140
Ge -1.95487459 13.90927357 17.44569448
Ge 8.47426251 2.37637359 7.13489510
Ge 8.84122554 2.67493362 17.87557875
Ge 6.37265211 6.37064187 7.04411987
Ge 6.71834182 6.23529606 17.64110610
Ge 4.40271201 9.76182883 7.06373415
Ge 4.54479066 9.77703270 17.74927323
Ge 2.14873713 13.60754428 6.87552703
Ge 2.43455726 13.65805016 17.73764287
Ge 12.95123274 2.55793546 6.82146421
Ge 12.59956825 2.71456505 17.69626606
Ge 10.93001497 5.98843600 7.07813020
Ge 11.12085407 6.29314772 17.91631907
Ge 8.68012656 9.93539163 6.97266243
Ge 8.84873133 9.88476121 17.75499452
Ge 6.66050359 13.65155839 7.00948655
Ge 6.83817295 13.69483118 17.41476087
Te 0.21233660 14.58498744 0.06056539
Te 8.70313550 7.32746714 0.38001369
Te 4.51708114 12.47154417 3.56228328
Te 0.08170276 2.65816858 7.00811215
Te 0.31322712 9.94999810 7.02258051
Te 2.14788400 1.40814297 8.89571302
Te 2.27129032 1.58088942 19.32934801
Te 0.29206931 5.27522870 9.03615589
Te 0.31998488 5.19160265 19.07959512
Te -1.92051427 8.99628916 8.79339140
Te -2.00559415 8.94655570 19.18841432
Te -3.97960096 12.55244326 8.73140683
Te -3.89194430 12.69286099 19.12044954
Te 6.52799332 1.51195119 9.00412775
Te 6.64678248 1.40779478 19.49043228
Te 4.45333488 5.03477283 8.72813751
Te 4.70210369 5.44174776 19.40442907
Te 2.43755361 8.75043053 9.00110792
Te 2.25318167 8.90165698 19.19609374
Te 0.29065601 12.60945671 8.96939946
Te 0.41051873 12.49310720 19.16491901
Te 10.90521286 1.32863928 9.08867059
Te 10.87417477 1.37408833 19.41202295
Te 8.85101011 5.04429728 8.97281097
Te 8.81999982 5.06425805 19.31648039
Te 6.61997539 8.87831294 8.94588183
Te 6.70590492 8.99269629 19.48458468
Te 4.42208997 12.72089396 8.77819031
Te 4.81579271 12.60609002 19.11814650
Te 15.27612893 1.38369039 8.91909589
Te 14.99012633 1.57113278 19.21019387
Te 13.10013148 5.07331749 8.91156365
Te 13.19692573 5.13288357 19.58919851
Te 11.01728214 8.93086956 8.91563399
Te 10.94732776 9.12395823 19.47270128
Te 8.77575171 12.67039573 8.71481867
Te 8.80960671 12.67350868 19.29083019
Te 0.17292928 2.64195513 1.64328462
Te 0.09983976 2.49769702 12.17591189
Te -2.03028478 6.31031057 1.73240956
Te -1.68704371 6.65354447 12.44222851
Te -4.17302161 10.01844395 1.86386892
Te -3.99610578 10.23168612 12.46998283
Te -6.32734840 13.93848039 1.69298396
Te -5.91605426 14.01452967 12.06247129
Te 4.29795554 2.33872889 1.74539751
Te 4.52401428 2.69637260 12.53193206
Te 2.31287388 6.33132877 1.86816988
Te 2.49390365 6.34676214 12.39131080
Te 0.21637674 9.87707934 1.93206419
Te 0.40588901 10.32161938 12.45287884
Te -2.02045206 13.50761506 1.72507262
Te -1.71056780 13.98882128 12.33512466
Te 8.55756036 2.65037543 1.99068568
Te 8.63204132 2.74190225 12.56162496
Te 6.34699180 6.16514143 2.04927120
Te 6.74370366 6.33613717 12.39569154
Te 4.50290596 9.96423054 1.85747211
Te 4.76037246 10.29534533 12.28821724
Te 2.42971626 13.61106346 1.82885442
Te 2.81406067 14.00736730 12.33026955
Te 12.88056721 2.37983429 1.75288401
Te 12.90876035 3.00311201 12.42711865
Te 10.93190972 6.30564298 2.00690540
Te 10.98169091 6.43176766 12.41601983
Te 8.74529837 10.10840311 1.90199505
Te 8.92803188 10.13205304 12.42238643
Te 6.77348799 13.86217039 1.84207638
Te 6.69585531 13.86579892 12.24564419
Te 8.76816536 14.92796933 5.16369813
Te 0.14920124 0.26817878 15.74554720
Te -2.08694906 3.93538763 5.04770556
Te -1.77677695 4.16516219 15.82188491
Te 12.92890950 7.37779733 5.31715807
Te -3.93280898 7.83444174 16.01941067
Te -6.19772579 11.37451242 5.25419728
Te -5.93576058 11.58489735 15.72535883
Te 4.25089927 0.18792067 5.48197974
Te 4.40740430 0.38228237 16.03914001
Te 2.30849321 3.85809090 5.25526673
Te 2.49750093 3.90116923 15.95245502
Te 0.07699695 7.38758762 5.08679892
Te 0.44169935 7.86853079 15.98927274
Te -1.96899064 11.28991089 5.23562186
Te -1.76901548 11.56915333 15.77123548
Te 8.37453618 0.13362454 5.57624063
Te 8.94310560 0.17695173 16.06428597
Te 6.48293620 3.80399929 5.43336299
Te 6.55510872 3.98569500 15.98420863
Te 4.44549422 7.54832362 5.36416942
Te 4.66484234 7.69248752 15.80835734
Te 2.30920308 11.11518225 5.34309278
Te 2.39212392 11.37500001 15.86231673
Te 12.72383160 0.11321149 5.33315145
Te 12.99169595 0.24527122 15.91592538
Te 10.91028105 3.82262725 5.29330070
Te 11.02735793 4.17377882 15.93901832
Te 8.84011251 7.47023304 5.54420419
Te 8.94574505 7.75549231 15.99769960
Te 6.70940835 11.34549764 5.29033298
Te 6.68725743 11.33333100 15.80210243
192
Time=70000.00000007 pbc="T T T" Lattice="17.05901383 -0.14761557 0.15703477 -8.51062635 14.94941914 -0.28723292 -0.17328832 0.14953909 20.92879482" energy=-822.86568773 virial="-2.82874389 4.11575886 -2.61291319 4.11575886 6.51964422 2.86287579 -2.61291319 2.86287579 3.44166118" stress="0.00040196 0.00077493 -0.00049197 0.00077493 0.00216211 0.00053903 -0.00049197 0.00053903 0.00158258" Properties=species:S:1:pos:R:3
Ge 0.06481239 0.25312221 10.58930501
Ge 16.68448244 0.19505055 0.28168102
Ge -2.28147652 3.95108822 10.49359864
Ge 14.70664085 3.76193788 0.36203985
Ge -4.22846931 7.73905796 10.37030585
Ge 12.59715190 7.50339064 0.18981369
Ge -6.39724712 11.27249895 10.42228680
Ge -6.23461840 11.24113003 -0.02665761
Ge 4.16446340 0.24780897 10.73225397
Ge 4.09532411 0.14649067 0.36182629
Ge 2.03269860 3.55480944 10.41378513
Ge 2.10084382 3.81031273 0.18504874
Ge -0.02665769 7.39183931 10.49659749
Ge -0.18516549 7.69486859 0.20132864
Ge -2.12311347 11.32683460 10.33875578
Ge -1.91743921 11.09680253 -0.02531721
Ge 8.19043868 0.23030324 10.61582523
Ge 6.44785039 4.17931514 10.46305163
Ge 6.49214766 3.76969509 0.42749390
Ge 4.00881184 7.55093518 10.38750028
Ge 4.47254537 7.50336623 0.40649954
Ge 2.02794581 11.37518835 10.40954020
Ge 2.24663757 11.36634181 0.21517887
Ge 12.66314739 0.04713594 10.66223962
Ge 12.94933697 -0.01123622 0.27697070
Ge 10.53168673 3.79608596 10.34409673
Ge 10.55782743 3.95113846 20.84730403
Ge 8.48601204 7.54062214 10.48063253
Ge 6.23218796 11.14530726 10.37656607
Ge 6.05021217 11.11491460 20.72990618
Ge 2.05058697 1.07274596 3.73427619
Ge 2.01880457 1.22131117 14.27545355
Ge -0.07289752 5.06342357 3.76207292
Ge 0.31214002 5.36723752 14.19463600
Ge -2.26290127 8.88750391 3.57530488
Ge -1.95991751 8.80972165 13.93724977
Ge -4.17373727 12.57109099 3.45827579
Ge -4.28123174 12.48654922 14.05126672
Ge 6.55164961 1.44758622 3.40913114
Ge 6.05161802 1.44224230 14.18090900
Ge 4.35411090 5.16925738 3.59034618
Ge 4.29549133 5.08535294 14.08275707
Ge 2.01380520 8.64918048 3.51492021
Ge 1.82976954 8.98378127 14.05368182
Ge 0.23459806 12.58736557 3.33794330
Ge -0.25840533 12.84927589 14.20795933
Ge 10.65153019 1.24449371 3.79370590
Ge 10.29590784 1.25374120 14.06075148
Ge 8.83729462 4.91100521 3.52038999
Ge 8.54226193 5.13536329 14.21410022
Ge 6.28892829 8.90181310 3.53159482
Ge 6.19156563 8.85561062 13.97193138
Ge 4.14552339 12.67324749 13.85513147
Ge 14.82700804 1.06669402 3.64054317
Ge 14.76205197 1.35798317 14.10244716
Ge 12.79607003 4.66954906 3.60500020
Ge 12.71920328 5.13588704 14.22819381
Ge 10.45944455 8.69379482 3.50573907
Ge 10.63293012 8.88815537 13.95499958
Ge 8.51577553 12.18867453 3.61183180
Ge 8.52572738 12.39637684 13.82192629
Ge 0.05183467 2.68132989 17.51128924
Ge -2.26962466 6.21741364 6.82697074
Ge -2.32300221 6.44428860 17.47413609
Ge -4.32199983 10.21466826 7.04330691
Ge -4.68078456 10.30872944 17.44230689
Ge -6.56966790 13.80984698 6.50129353
Ge -6.68040666 13.83560789 17.32240062
Ge 3.98944540 2.78018265 6.87538443
Ge 4.46147053 2.33998127 17.57962355
Ge 2.34806846 6.28333728 6.85700868
Ge 2.10357127 6.23744152 17.77692218
Ge 0.02750414 10.25568878 17.55851351
Ge -2.22354987 13.90702640 6.89173480
Ge -2.02028772 13.62105494 17.73552958
Ge 8.21905008 2.46074709 7.13620477
Ge 8.69430998 2.60751020 17.91184387
Ge 6.31886360 6.30437719 7.04211859
Ge 6.26534992 6.09208396 17.29002511
Ge 3.90562035 10.09789512 7.16609018
Ge 4.05452834 9.80006171 17.36397572
Ge 2.08286897 13.67312494 6.64142373
Ge 2.01628864 14.07832351 17.18539135
Ge 12.59498631 2.36046291 7.22623648
Ge 12.66089152 2.70153516 17.77193128
Ge 10.53462795 6.42566705 6.86783569
Ge 10.49744113 6.44887125 17.71872272
Ge 8.49048925 10.04216837 7.06258488
Ge 8.11508731 10.19122227 17.55326709
Ge 6.17365140 13.64877723 6.98641746
Ge 6.07433527 13.59640183 17.43071814
Te 8.82209596 0.04569418 0.25650316
Te 8.49826127 7.34942105 -0.01065712
Te 4.29269890 12.45695951 3.45391646
Te -0.11084799 2.37666338 6.91713391
Te 0.04690957 10.19298195 7.08551586
Te 2.20552403 1.10751306 8.90233656
Te 1.76905515 1.27509269 19.29174605
Te 0.00800902 4.92944574 8.75743478
Te -0.20326163 5.20436247 19.25316379
Te -2.39517357 8.80147446 8.63351325
Te -2.19611431 8.84315212 19.17711569
Te -4.43851442 12.33464769 8.62358212
Te -4.36089773 12.67805811 19.09073781
Te 6.21259066 1.26455489 8.94054942
Te 6.27315491 1.29471383 19.51082402
Te 4.16507684 4.89822496 9.07884462
Te 4.19397790 4.89796346 19.28157757
Te 1.92851502 8.53421778 8.85881159
Te 1.99397334 8.79056011 19.17511535
Te -0.06071530 12.59615113 8.85184472
Te -0.06351255 12.53336746 19.22603677
Te 10.47645420 1.10139288 9.01620536
Te 10.70776014 1.35426816 19.36234566
Te 8.47567829 4.85572011 8.65230040
Te 8.45230509 5.00065808 19.37523242
Te 6.26203964 8.64182659 8.95919660
Te 6.17935687 8.65945506 19.06087884
Te 4.28355633 12.32435890 8.83164511
Te 3.94695003 12.38603644 19.28268805
Te 14.78860234 1.04678342 9.17522125
Te 14.57720421 1.01494490 19.23334928
Te 12.81121493 4.76039281 8.84237320
Te 12.73421343 4.96858205 19.45562547
Te 10.53186085 8.50361514 9.00367477
Te 10.31713222 8.69284720 19.17836071
Te 8.59419682 12.27598036 8.74518884
Te 8.26751667 12.61954037 19.28402726
Te -0.01852753 2.71159474 1.69700964
Te -0.19710306 2.36446608 12.32130824
Te -2.24278033 6.26407063 1.77808061
Te -2.22137927 6.18139568 12.44927293
Te -4.40120896 9.86892073 1.65920844
Te -4.18819600 9.98756935 12.23802085
Te -6.36451906 13.59061167 1.72181978
Te -6.48050408 13.67250936 12.27146733
Te 4.21560951 2.55919371 1.77962648
Te 3.97348804 2.40712780 12.54941307
Te 2.30224006 6.23376215 1.77922419
Te 2.24993944 6.24950352 12.42962461
Te -0.03052970 9.93463792 2.02595200
Te -0.04286691 9.74065910 12.24056482
Te -2.08291395 13.63611487 1.63942380
Te -2.33455349 13.63297054 12.26443737
Te 8.55933916 2.62125614 2.01610179
Te 8.24182211 2.37719189 12.46658798
Te 6.45738995 6.15367907 1.97011685
Te 6.63469639 6.18442130 12.45072829
Te 4.28161094 9.77137149 1.77022414
Te 4.22451623 10.00930951 12.34614095
Te 2.32958722 13.75144315 1.81970977
Te 2.09871406 13.67831873 12.16824884
Te 12.78835846 2.25601540 1.96144027
Te 12.68641645 2.46880298 12.55710910
Te 10.77940213 6.05889560 2.02732178
Te 10.63070416 5.99574170 12.43126874
Te 8.31862719 9.90763743 1.87222752
Te 8.40883566 9.84895042 12.33070620
Te 6.57890062 13.55240189 1.67488641
Te 6.45453596 13.63891624 12.26699870
Te 8.41730467 14.71568259 5.18948818
Te 8.36496664 14.77854952 15.74237628
Te 14.86767240 3.47844518 5.58620366
Te -2.18783476 3.82516846 15.88471439
Te 12.72688219 7.19284007 5.43069731
Te -4.30250515 7.58822050 15.60608805
Te 10.60917020 10.95763533 5.25206503
Te 10.31668582 11.10879819 15.78209641
Te 4.20935609 0.25825103 5.46613696
Te -4.29754867 14.90878304 15.52215548
Te 2.04779274 3.81419792 5.23746740
Te 2.08186382 3.82021230 15.82269833
Te 0.00550285 7.34604431 5.26880977
Te -0.18903816 7.63091857 15.69578037
Te -2.33457203 11.27590451 5.21861706
Te -2.21153521 11.28098805 15.59682347
Te -0.16478720 14.74166929 5.24459045
Te 8.33035944 0.13280700 16.03832858
Te 6.48410479 3.73648657 5.45469065
Te 6.44264738 3.56274601 15.78633748
Te 4.46276348 7.36273705 5.38439691
Te 4.17858239 7.46878593 15.71159102
Te 2.05651054 11.10278811 5.21672719
Te 2.02600570 11.27333379 15.75585293
Te 12.72216049 0.02156862 5.50930059
Te 4.14767443 14.87135040 15.75117734
Te 10.56483178 3.48830630 5.34935709
Te 10.65245472 3.47798942 15.81394136
Te 8.43688241 7.32191832 5.29165219
Te 8.53325202 7.42339970 15.84821525
Te 6.42864634 10.93160696 5.36808061
Te 6.13333583 11.09692111 15.77668039
192
Time=80000.00000008 pbc="T T T" Lattice="17.04447643 -0.14866177 -0.07682564 -8.58790855 15.01189429 -0.30744466 -0.02226359 0.23357157 20.99530470" energy=-823.66901672 virial="-2.36074088 4.19568794 4.63147666 4.19568794 -0.50938709 3.40041447 4.63147666 3.40041447 -3.01880005" stress="0.00048687 0.00078481 0.00086633 0.00078481 0.00083317 0.00063606 0.00086633 0.00063606 0.00036378" Properties=species:S:1:pos:R:3
Ge 16.89090766 0.05050650 10.57327496
Ge 8.41100145 14.60837921 0.05252343
Ge -2.19346906 3.99968158 10.20693804
Ge -2.04628690 3.77108532 0.03802918
Ge -4.14089118 7.78262244 10.32023431
Ge -4.32694818 7.90292816 0.15878640
Ge -6.50640486 11.49330836 10.19842747
Ge -6.44956619 11.52488411 -0.14714793
Ge -4.50302403 14.96718527 10.14632528
Ge -4.29487582 14.78388409 -0.31657884
Ge 1.81065909 3.60691882 10.49768615
Ge 1.95829537 3.91947519 0.14761842
Ge -0.05337705 7.47911252 10.20971783
Ge 0.00635377 7.79423026 0.08517094
Ge -2.49512533 11.51116156 10.18909613
Ge -2.27837302 11.48875574 -0.00597827
Ge 8.53749892 0.09123516 10.54937234
Ge 6.25905670 4.06716755 10.43837563
Ge 6.08320403 3.63753957 0.20733035
Ge 4.03524048 7.47795876 10.61844069
Ge 4.23066737 7.53116684 -0.04995551
Ge 2.11638922 11.59107741 10.06065763
Ge 2.02500729 11.43152755 -0.20011258
Ge 12.86673177 0.19692451 10.58411627
Ge 12.93969726 -0.01098025 0.05793490
Ge 10.28562857 3.88149974 10.37688532
Ge 10.40373167 3.78419730 -0.05707660
Ge 8.55902040 7.65036569 10.34386736
Ge 6.23499160 11.47322444 9.86914225
Ge 6.13238386 11.14040134 -0.05907418
Ge 1.96821170 1.48649106 3.85788206
Ge 2.26349414 1.83389669 14.17017164
Ge -0.15198724 5.03452539 3.55331103
Ge -0.16458552 5.30467503 14.01152980
Ge -2.23568620 9.08965597 3.37505511
Ge -2.14408003 8.94656650 13.55277841
Ge -4.07048308 12.54807656 3.59499337
Ge -4.29352820 12.83154513 13.87087890
Ge 6.20307375 1.41445560 3.38640110
Ge 6.28996101 1.48046259 14.05132436
Ge 4.19324951 5.23691451 3.55823451
Ge 4.47863810 5.16458016 14.21939146
Ge 1.85528929 8.85162800 3.36717947
Ge 1.91864354 8.87826335 14.03704966
Ge 0.00131545 12.69310691 3.33446788
Ge -0.11658207 12.53830879 13.66535838
Ge 10.62750020 1.24035751 3.50723471
Ge 10.62797532 1.46856028 14.08374426
Ge 8.33521948 4.98668920 3.38974230
Ge 8.33847604 5.21288946 14.07719121
Ge 6.28396340 8.93831936 3.38424080
Ge 6.26863254 9.05896060 13.66973481
Ge 4.32142711 12.47756173 13.80840041
Ge 14.82941305 1.23950785 3.56263638
Ge 14.88937372 1.32376457 13.95409656
Ge 12.68071292 5.17759113 3.55613128
Ge 12.82578963 5.16730718 13.95685582
Ge 10.36965589 8.77288033 3.33500255
Ge 10.43778019 8.72342418 13.79962272
Ge 8.35527675 12.44718016 3.16528580
Ge 8.46969994 12.43856099 13.78537322
Ge 0.09477065 2.91277403 17.78907375
Ge -2.33123977 6.34224493 6.83593256
Ge -2.36054205 6.32280067 17.54445984
Ge -4.20601745 10.26009660 6.88516509
Ge -4.25156810 10.00932059 17.80392991
Ge -6.34905945 13.96874436 6.43412670
Ge -6.54582586 14.05752667 17.27604351
Ge 4.25288477 2.73532430 7.09464530
Ge 4.31027991 2.63064982 17.86858732
Ge 2.12104868 6.40967763 6.86166940
Ge 2.26232079 6.67695574 17.26324934
Ge -0.26997873 10.48654640 17.59525481
Ge -2.16423615 13.88858391 6.73312317
Ge -2.17952883 13.77373209 17.25479181
Ge 8.49103576 2.46322294 6.81087138
Ge 8.73238137 2.68393939 17.92358116
Ge 6.12470825 6.54490319 6.89205051
Ge 6.10285988 6.36425813 17.51535915
Ge 4.31513370 10.15406325 6.77290071
Ge 4.31219225 10.15051969 17.42830479
Ge 1.91624565 13.88785959 6.72477422
Ge 2.11310979 14.14003282 17.12952156
Ge 12.71486602 2.26710645 6.92347188
Ge 12.82115823 2.55989363 17.76341683
Ge 10.50200253 6.51693080 6.72011130
Ge 10.64309283 6.28125602 17.29677305
Ge 8.31409298 10.10434022 6.74897085
Ge 8.77352820 9.99235457 17.28153100
Ge 6.20961080 13.84015995 6.82831013
Ge 6.41711969 13.95937944 17.21854371
Te 8.53436139 0.10693705 0.20082656
Te 8.40029193 7.47627822 -0.04424256
Te 4.11477004 12.42508562 3.25302360
Te 0.02782611 2.55932676 7.10741369
Te 0.06110392 10.02016049 7.07417369
Te 2.07921002 1.25702364 8.97771451
Te 1.99443630 1.37048629 19.41350099
Te -0.02341167 5.21610107 8.67109492
Te -0.16828025 5.18518196 19.31133833
Te -2.21819482 8.76903538 8.69351038
Te -2.12095974 8.80269139 19.03267685
Te -4.43012820 12.67093683 8.54507935
Te -4.53410670 12.71044488 19.16453655
Te 6.41166633 1.20202942 8.79099551
Te 6.32008764 1.36777921 19.43271110
Te 4.24124962 5.01831371 8.60553389
Te 4.22035771 5.11793226 19.25044782
Te 2.37011350 8.73235537 8.64456458
Te 1.98956445 8.74202840 19.10274130
Te -0.14311598 12.60265878 8.75730935
Te -0.09901873 12.68899244 19.25318423
Te 10.69403845 1.07900943 8.92167572
Te 10.88536260 1.43461017 19.43886594
Te 8.40134603 4.87638232 8.74785546
Te 8.44554908 5.11045965 19.27938015
Te 6.42823607 8.72988455 8.67084496
Te 6.30194122 8.83723207 18.98115621
Te 4.17037274 12.53732782 8.36442028
Te 4.19214369 12.44521750 19.02368322
Te 14.85919502 1.11926082 8.92619090
Te 14.93278649 1.13422261 19.36804796
Te 12.52832813 4.83650517 8.81147646
Te 12.89555358 5.12115617 19.31594633
Te 10.65462596 8.55613410 8.69474343
Te 10.68300230 8.65945663 19.22014926
Te 8.68023045 12.59650645 8.43849798
Te 8.33805581 12.45661728 19.28449323
Te -0.00727249 2.43927696 1.85905938
Te 0.02685658 2.50518352 12.30219118
Te -2.19942094 6.04705958 1.90081558
Te -2.03553295 6.39245680 12.26882535
Te -4.24388545 10.10765450 1.87091187
Te -4.39180461 10.07862998 11.99374030
Te -6.49915854 13.72544281 1.61503679
Te -6.47366803 13.78293094 12.13626525
Te 4.16323824 2.44566433 1.79592266
Te 4.46225475 2.35617118 12.27589574
Te 2.07400125 6.18760943 1.73836267
Te 2.23904735 6.40681864 12.40877334
Te -0.08973424 10.02912672 1.65757410
Te 0.07900867 9.98311224 12.17948100
Te -2.20832140 13.73156323 1.75386095
Te -2.14480291 13.90142453 12.17904456
Te 8.42178235 2.54827599 1.93983707
Te 8.51668682 2.23046675 12.38567184
Te 6.30008147 6.12701102 1.71246698
Te 6.54969872 6.31234647 12.28837528
Te 4.08591359 9.82849386 1.69414660
Te 4.29325267 10.07669829 11.99794864
Te 2.10748778 13.66831851 1.36347075
Te 2.05613520 13.70027403 12.13631799
Te 12.82991926 2.34819767 1.83955903
Te 12.82580225 2.46934790 12.44604494
Te 10.55602505 6.10222304 1.98771378
Te 10.66788469 6.02398620 12.36808286
Te 8.28121434 9.89469950 1.73806234
Te 8.52046375 9.77871895 12.16088775
Te 6.27442766 13.61919953 1.51754801
Te 6.18782022 13.63198473 12.14574852
Te 16.98820222 -0.07411539 5.25049930
Te -8.48992841 15.00646754 15.73090038
Te -2.19907102 3.90773710 5.41659186
Te -2.18668987 4.05302036 15.84254797
Te 12.66129872 7.47425364 5.11235157
Te 12.72127514 7.37553325 15.80572658
Te -6.33606211 11.19970561 5.31821857
Te 10.78078754 10.93881706 15.71041094
Te 4.31211387 0.06474022 5.35846306
Te -4.39040814 14.95833115 15.60418518
Te 2.34800017 3.86333659 5.30027819
Te 2.24705516 3.87434899 15.92669230
Te -0.09526534 7.38146578 5.24917017
Te 0.11166375 7.56661260 15.68192735
Te -2.15269289 11.30322376 5.18552445
Te -2.14566021 11.21907592 15.62945047
Te 8.55991668 0.03162653 5.40724259
Te -0.02227302 14.78931937 15.51282484
Te 6.39191331 3.68032740 5.44399651
Te 6.28764794 3.65061759 15.87016708
Te 4.16979746 7.67203371 5.10435246
Te 4.33846688 7.68414262 15.75739961
Te 2.18563289 11.26625260 5.20321173
Te 2.16303056 11.32467018 15.70701439
Te 4.27781919 14.95608270 5.07142013
Te 12.84467774 0.11401518 15.94274554
Te 10.62272142 3.48640929 5.22479458
Te 10.64859980 3.57249213 15.78516905
Te 8.43789067 7.47602010 5.12872948
Te 8.66524511 7.55118242 15.77028952
Te 6.34147635 11.27557653 5.07722943
Te 6.43528059 11.27860947 15.65468976
192
Time=90000.00000003 pbc="T T T" Lattice="17.02501017 -0.03228896 0.16446130 -8.51600726 14.94548063 -0.55395847 -0.04288418 0.46857197 20.94396647" energy=-823.84810293 virial="8.42989630 -3.32949300 0.14012015 -3.32949300 -13.32155559 -8.86771907 0.14012015 -8.86771907 3.96666173" stress="0.00251420 -0.00062501 0.00002630 -0.00062501 -0.00156894 -0.00166463 0.00002630 -0.00166463 0.00167637" Properties=species:S:1:pos:R:3
Ge -0.05598033 0.34453836 10.41505807
Ge 8.46537309 14.86577812 -0.16178929
Ge 14.83536574 3.90700355 10.63997437
Ge 14.75781929 3.62150393 0.25347144
Ge -4.19183555 7.57538967 10.09703576
Ge -4.26782621 7.71489082 -0.23885194
Ge -6.39959845 11.66545415 10.14296794
Ge 10.59914280 11.24798117 0.06341129
Ge 4.22993738 0.42029980 10.45613154
Ge 4.25395889 0.50466152 20.94291453
Ge 2.08573822 4.08564842 10.33615316
Ge 2.21276361 3.81167142 -0.04510092
Ge -0.04061953 7.69385268 10.11106994
Ge -0.07673469 7.70201677 -0.02670088
Ge -2.35841096 11.58800945 10.22333195
Ge -2.18067333 11.69350504 20.53241790
Ge -0.01205594 15.15178939 10.10721752
Ge 6.27161342 4.10058051 10.55862651
Ge 6.19278402 3.79607938 -0.00509860
Ge 4.03853526 7.65324014 10.24687929
Ge 4.16064057 7.53601055 0.03190737
Ge 2.22990899 11.35889235 10.10112686
Ge 2.27523631 11.18486228 -0.14715364
Ge 4.38078947 15.15469021 10.13928735
Ge 4.11602827 14.80866753 -0.39577798
Ge 10.73222665 4.11098798 10.59171296
Ge 10.50705517 4.36551922 20.82695525
Ge 8.44786740 7.72850045 10.32722567
Ge 5.94319723 11.59715319 10.18023770
Ge 6.28463969 11.83352609 20.50525590
Ge 2.37282124 1.24484641 3.65308906
Ge 2.24803680 1.80029457 14.10502110
Ge -0.17490495 5.07850296 3.47023753
Ge -0.09438396 5.25165640 14.02583396
Ge -1.98447460 8.67829960 3.31446475
Ge -2.17172391 9.25051960 13.53432035
Ge -4.20511386 12.60095538 3.36451995
Ge -4.34980387 12.99003518 13.43549551
Ge 6.21600693 1.61403273 3.52110666
Ge 6.54658848 1.45236147 14.35355702
Ge 4.21334255 5.18498787 3.50499929
Ge 4.19520050 5.53239329 13.93356016
Ge 1.93689899 8.93173643 3.15830270
Ge 1.95846896 9.00323135 13.86580519
Ge -0.38471132 12.66858268 3.24308814
Ge -0.22891519 12.69319260 13.91512595
Ge 10.41359207 1.12379964 3.54867394
Ge 10.59662570 1.61138000 14.23216973
Ge 8.61331573 5.15114147 3.37092372
Ge 8.47353340 5.41269220 14.01437985
Ge 6.07453330 8.91780848 3.46227182
Ge 6.50983384 9.23219972 13.68566346
Ge 4.08993945 12.86696024 13.42203061
Ge 14.80154172 1.31315018 3.77840320
Ge 14.83004719 1.64842469 14.30100806
Ge 12.74742404 4.86480407 3.35559599
Ge 12.90858809 5.45523086 14.35622621
Ge 10.43609730 8.99552444 3.38925649
Ge 10.62526204 8.79741527 13.90520424
Ge 8.37607497 12.54609912 3.15280411
Ge 8.51192119 12.78891446 13.69836455
Ge -0.06859120 3.00494405 17.19051328
Ge -2.10486464 6.34550651 6.73343357
Ge -2.21782293 6.79069143 17.41448707
Ge -4.04632915 10.11600256 6.76090737
Ge -4.60407759 10.53963766 17.52609700
Ge -6.73786278 14.01927802 6.59284587
Ge -6.56674089 14.06304102 17.04895318
Ge 3.94628360 2.79901769 6.91844501
Ge 4.39329195 2.90908047 17.72807345
Ge 2.13417107 6.31124441 6.77425205
Ge 2.11248297 6.83525862 17.28960756
Ge -0.03681902 10.76038233 17.05019506
Ge -1.76380002 13.99605506 6.62507325
Ge -2.12229622 14.22742690 17.09373450
Ge 8.39412130 2.58171483 7.13411047
Ge 8.50448559 3.02904214 17.68257022
Ge 6.28332984 6.47355669 6.83575190
Ge 6.31640063 6.65632967 17.19353578
Ge 4.15200876 10.17757334 6.67108660
Ge 4.32308609 10.15352487 17.29808533
Ge 1.91243708 13.86485671 6.55887228
Ge 2.16039009 14.09454692 17.07710042
Ge 12.53288885 2.55115608 6.97137770
Ge 12.66365208 2.69358476 17.71689820
Ge 10.52942843 6.49972513 6.77600041
Ge 10.53305886 6.76450278 17.63946431
Ge 8.35448373 9.95354161 6.99008449
Ge 8.08094338 10.33986777 17.11431583
Ge 6.19785549 13.98638403 6.71378847
Ge 6.34886222 14.20959845 17.15553804
Te -0.06750832 14.91132246 -0.03194640
Te 8.56728921 7.49312434 0.04060684
Te 4.24248260 12.62438051 3.32324563
Te -0.01721687 2.71208198 6.99593842
Te -0.04725637 10.01484858 6.74621298
Te 2.07240610 1.44035590 8.88068504
Te 2.19479819 1.57013882 19.34928532
Te 0.04574697 5.15262410 8.72764931
Te -0.00948676 5.23472826 19.05370771
Te -2.08442592 8.89743757 8.66280249
Te -2.04914528 9.10958086 19.04922140
Te -4.29538071 12.70163606 8.47186685
Te -4.18556063 12.80570945 19.11524064
Te 6.47575083 1.49132850 9.02573534
Te 6.40565522 1.55948382 19.51519771
Te 4.27924007 5.17204133 8.73235233
Te 4.21243983 5.30675103 19.21738423
Te 2.09635692 8.95685870 8.71831217
Te 2.29868680 9.18422217 19.08749891
Te -0.11375288 12.63146422 8.57462620
Te -0.04320579 12.87326468 18.91296953
Te 10.68017917 1.21912221 9.04025460
Te 10.64098483 1.60944862 19.42942810
Te 8.52876535 5.03147359 9.07960763
Te 8.52331098 5.48859226 19.33664213
Te 6.26286687 8.81766858 8.70768098
Te 6.24795261 9.09672106 18.97887855
Te 4.15443947 12.65361541 8.46844578
Te 4.11936903 12.69026190 18.91885581
Te 14.85145617 1.41503520 8.92188037
Te 14.84355954 1.58782507 19.52051505
Te 12.87780209 5.02091962 9.02469764
Te 12.84354768 5.31592321 19.32211162
Te 10.64358577 8.88485158 8.86404031
Te 10.57766634 9.33021162 19.28466714
Te 8.52725700 12.53099004 8.61519975
Te 8.54704792 12.80887261 18.91872476
Te -0.13549390 2.64025037 1.88873793
Te 0.15194249 2.66969493 12.33219598
Te -2.15588296 6.42899270 1.62778158
Te -1.99782370 6.46917802 12.28401407
Te -4.34107741 9.91831549 1.48418252
Te -4.33381591 10.19530008 11.96424811
Te -6.39325727 13.62212052 1.40531693
Te -6.40520346 13.89044855 11.97524521
Te 4.30253120 2.54764207 1.82310473
Te 4.39389359 2.57352085 12.49578565
Te 2.11845179 6.18938507 1.75149195
Te 2.09632996 6.32348845 12.29249819
Te -0.04104268 10.02774434 1.64942433
Te 0.06548750 10.14546859 12.10496231
Te -2.15611174 13.78212744 1.60310066
Te -1.91600912 13.95338419 11.93072929
Te 8.36759504 2.61940804 2.12980362
Te 8.71412593 2.74391780 12.57637408
Te 6.38246718 6.17663428 1.91580807
Te 6.19746464 6.47696132 12.41783090
Te 4.12380955 9.74659810 1.52323052
Te 4.24555175 10.28891127 12.23068898
Te 2.05499144 13.55984328 1.66665351
Te 2.01140382 13.71040528 12.03151935
Te 12.67340311 2.45200007 1.96505430
Te 12.93830129 2.50026350 12.48914729
Te 10.67699733 6.25848889 1.80035678
Te 10.60071136 6.39407910 12.41677228
Te 8.37843740 10.06797500 1.76577431
Te 8.61846529 10.06755340 12.31924222
Te 6.51296741 13.77967440 1.43793905
Te 6.39425432 13.83671007 12.03209578
Te 8.31914430 14.99181942 4.90314199
Te -8.44927520 15.18271283 15.35789524
Te 14.74412584 3.92326328 5.20364590
Te -2.12096176 4.12387255 15.64169327
Te -4.21505744 7.62758968 5.23240490
Te -4.16547050 7.87524646 15.78567392
Te 10.53384817 11.26629827 5.19881068
Te 10.58900031 11.48746522 15.46071774
Te -4.34543559 15.01185965 4.95328223
Te -4.18878785 15.26494992 15.24454047
Te 2.22987014 3.86732019 5.10755554
Te 2.28574034 4.01631526 15.83885127
Te 0.00545204 7.60884730 5.07976849
Te -0.02866451 7.83836048 15.81170310
Te -2.26453361 11.44305651 5.12965122
Te -2.27070001 11.58615503 15.55167522
Te 8.52057820 0.19635894 5.51232329
Te 0.03861144 15.28258920 15.63474746
Te 6.53247265 3.82857619 5.41992163
Te 6.27084848 3.91720891 15.72704930
Te 4.14004831 7.44212819 5.24962582