192
Time=60000.00000005 pbc="T T T" Lattice="17.23197621 -0.74970698 -0.05985003 -8.09598824 15.22299766 -0.50013442 0.09924433 0.78818761 21.10826449" energy=-821.25178784 virial="-21.58374782 5.06759911 -0.03942992 5.06759911 -19.82630350 -0.97210361 -0.03942992 -0.97210361 -22.26574158" stress="-0.00276340 0.00093573 -0.00000728 0.00093573 -0.00243889 -0.00017950 -0.00000728 -0.00017950 -0.00288933" Properties=species:S:1:pos:R:3
Ge 0.13403910 0.51633633 10.59291890
Ge 8.86585588 14.36505005 -0.40810421
Ge -1.71954567 4.35200930 10.87262580
Ge 15.23832674 3.85093656 20.89878157
Ge -3.99552343 8.10584748 10.38488062
Ge -4.00448319 7.61094698 0.07886775
Ge 11.04763177 11.17124681 10.07144245
Ge -5.85412626 11.48277254 -0.26601647
Ge -3.68776271 15.32871928 10.09121120
Ge 4.38631755 -0.10264592 0.65360937
Ge 2.60349824 4.11735148 10.78776301
Ge 2.54466925 4.42239325 20.93156452
Ge 0.18056634 8.01589540 10.34186547
Ge 0.34011511 7.35107073 0.12581289
Ge -1.65726915 11.87937684 10.33706471
Ge -1.31238879 10.97324662 -0.30486159
Ge 0.23395315 15.19839869 10.04057009
Ge 6.74410509 3.82366687 10.70877723
Ge 6.66178962 3.54730248 0.16450703
Ge 4.53656202 7.83574913 10.45776377
Ge 4.81153385 7.19007272 -0.05953970
Ge 2.74626316 11.61141007 10.10783372
Ge 2.71612074 10.99628390 -0.11753024
Ge 13.16151736 -0.07193050 10.49729431
Ge 4.54876162 14.66158128 -0.28799087
Ge 10.84141263 3.12844129 10.57513205
Ge 11.01559279 3.36108868 0.07003019
Ge 9.18475790 7.34892101 10.39903011
Ge 6.86347524 11.56609294 9.89929621
Ge 7.01304235 10.95963374 -0.00970294
Ge 2.15928650 1.43280757 3.76460941
Ge 2.18130518 1.76742962 14.13866815
Ge 0.19852131 5.16385946 3.56093491
Ge 0.13356148 5.66468411 14.23374199
Ge -1.67401265 8.62418569 3.41806942
Ge -1.64363849 9.32147527 14.00442636
Ge -3.79880035 12.43043193 3.03489269
Ge -3.65716449 13.16970253 13.74543901
Ge 6.52214541 1.09163695 3.42124728
Ge 6.84714559 1.51444184 14.44099231
Ge 4.63928305 5.04049197 3.57630029
Ge 4.62354425 5.50893267 13.85922135
Ge 2.62974147 8.85135326 3.25740697
Ge 2.60183112 9.14131004 13.73822489
Ge 0.39282666 12.08292148 3.04924373
Ge 0.72349680 12.98259166 13.91524251
Ge 10.95492915 0.71668202 3.33899540
Ge 10.88766810 1.41185783 14.27257619
Ge 9.01475913 4.78698954 3.26905125
Ge 8.81341689 5.26713357 13.82974542
Ge 6.78602381 8.48419919 3.09845628
Ge 6.80442102 8.93968519 14.03817428
Ge 4.60103481 12.86208286 13.73079974
Ge 15.22481825 0.89735821 3.54660555
Ge 15.36604221 1.26488197 14.31944097
Ge 13.30570160 4.40525355 3.40419664
Ge 13.23731683 4.84380619 14.09693631
Ge 11.03798487 8.28637275 3.61337094
Ge 11.17786540 8.80028074 13.83956308
Ge 8.73984028 12.25667446 3.14124768
Ge 9.11198242 12.57994565 13.58700149
Ge 0.44807098 3.00659276 17.79156458
Ge -2.20327776 6.47067847 7.18396197
Ge -1.57949895 7.08442347 17.43583012
Ge -3.80778253 10.30313427 6.90043712
Ge -3.93894706 10.87299551 17.29081180
Ge -5.81742668 13.91953113 6.72204309
Ge -5.80924659 14.60595378 17.55888701
Ge 4.41771430 2.58748682 7.16570972
Ge 4.71149676 3.06915727 17.62098916
Ge 2.41423291 6.17821337 7.01823264
Ge 2.62814396 6.64852324 17.69104786
Ge 0.44254388 10.62976630 17.49351977
Ge -1.69004762 13.94267346 6.59251645
Ge -1.42849536 14.56738800 17.52934642
Ge 8.72702031 2.08750836 6.87239570
Ge 8.77165944 2.79225938 17.87720369
Ge 6.73771687 6.01970187 6.72631823
Ge 6.62591843 6.46952381 17.35954216
Ge 5.04731730 9.87656248 6.88969336
Ge 4.94382420 10.58083989 17.63006029
Ge 2.35621435 13.69357609 6.16217760
Ge 2.89881687 14.06507953 17.58154118
Ge 13.14610223 2.08848845 6.81333137
Ge 12.89790895 2.39864418 17.59698063
Ge 11.02064470 5.60833990 6.74275627
Ge 11.35979582 6.42763992 17.60782221
Ge 8.97298721 9.94408747 6.43689504
Ge 8.94229030 10.41816551 17.30407126
Ge 6.93743192 13.98534748 6.53006636
Ge 7.00553621 13.97347834 17.40894347
Te 8.69334399 -0.23990449 0.07624865
Te 9.06264859 7.04952458 -0.09016531
Te 4.57367820 12.18842266 3.13585254
Te 0.36750675 2.74205542 7.30903712
Te 0.50099376 10.04543470 6.79466714
Te 2.38516805 1.28768835 9.05410643
Te 2.40462875 1.95803215 19.32651195
Te 0.30037150 5.37705178 8.99285845
Te 0.24180286 5.83940056 19.43155290
Te -1.90974856 9.10363264 8.85477584
Te -1.75344311 9.42162686 19.06230831
Te -3.67496105 12.78346720 8.71161144
Te -3.77731441 13.39398950 19.13844611
Te 6.46496694 1.21564517 8.71365748
Te 6.65718944 1.91605596 19.48981123
Te 4.51667206 5.01705184 8.78413719
Te 4.71660463 5.55927397 19.29437436
Te 2.52837382 8.95105300 8.74381620
Te 2.37572347 9.33432884 19.01752277
Te 0.48299211 12.69791397 8.65082103
Te 0.45273356 13.07329747 18.88065029
Te 10.96721079 1.05941414 8.79610245
Te 11.02029578 1.25473664 19.45628184
Te 8.62740064 4.87988139 8.69960222
Te 8.94725043 5.33240071 19.31750319
Te 6.89437503 8.64923998 8.74373091
Te 6.90658253 9.07412168 19.15145593
Te 4.71843932 12.48429997 8.29336316
Te 4.89068818 12.99275017 19.12841236
Te 15.12228301 0.95479001 8.72552166
Te 15.15625561 1.44188663 19.14831142
Te 13.00490958 4.77242503 8.82353374
Te 13.09767516 4.93319381 19.30984439
Te 11.08341265 8.59766955 8.69862473
Te 11.43181034 8.94065202 19.11491211
Te 9.09155572 12.46139162 8.39643134
Te 9.06858632 12.72750222 19.03798184
Te 0.21388500 2.46042837 1.89145362
Te -0.02545075 2.87013255 12.43019869
Te -1.88706216 6.29687378 1.73625030
Te -1.92403141 6.65848586 12.25578245
Te -3.85187629 10.04394017 1.46370155
Te -3.84611633 10.48865071 12.31603470
Te -6.04414662 14.00281567 1.39013708
Te -5.83897995 14.44641343 11.98389456
Te 4.35717789 2.41580879 1.66473993
Te 4.35841219 2.81166360 12.57074102
Te 2.43065226 6.00946756 1.73009145
Te 2.33033411 6.67294604 12.36498357
Te 0.53717328 9.79512917 1.53177395
Te 0.22988806 10.30058686 12.31765281
Te -1.76286976 13.59569131 1.45227196
Te -1.47460506 14.21029229 12.12593253
Te 8.75086696 2.29602924 1.73022024
Te 8.48735327 2.53535657 12.32545925
Te 6.59457590 5.97612402 1.76505682
Te 6.72696666 6.28837215 12.14158573
Te 4.63069555 9.54305468 1.42394207
Te 4.61443495 10.21599579 12.07983937
Te 2.48975716 13.45110750 1.41687369
Te 2.65180069 13.94988232 12.08059636
Te 12.95015323 1.98717054 1.69074574
Te 12.98343128 2.31328426 12.26028869
Te 11.31494187 5.76780421 1.76069631
Te 10.94808534 6.30597925 12.30582831
Te 8.80626331 9.71015296 1.55541407
Te 9.07763889 10.00702252 12.08922049
Te 6.81340151 13.56118625 1.27323133
Te 6.70142499 13.77522006 11.89176751
Te 9.18290635 14.54677052 4.84837074
Te -7.98713559 15.79032113 15.53214931
Te -1.95807742 4.11292036 5.34904998
Te 15.11707423 3.73385407 15.76721646
Te -4.02008350 7.94493815 5.24917870
Te 13.14076574 7.64954679 15.77075534
Te 11.01512605 10.70583343 4.77599656
Te 11.12470120 11.31964612 15.62766052
Te 4.22580720 0.13532957 5.41414996
Te 3.96619962 0.51182377 15.85089392
Te 2.38005021 3.87057774 5.29884390
Te 2.18891277 4.10782387 15.81412596
Te 0.29476909 7.61910097 5.06015773
Te 0.26468235 7.93231193 15.84453608
Te -1.92310633 11.45244195 5.02987572
Te -1.72879840 11.99047316 15.63670174
Te 0.38706071 14.97342361 4.80310115
Te 8.64711976 0.24335909 16.01370181
Te 6.60322183 3.58181263 5.39442112
Te 6.82396922 3.84832593 15.94252801
Te 4.36811891 7.43466370 5.11004848
Te 4.44040425 7.80447160 15.57903538
Te 2.46999325 11.13119375 4.93647434
Te 2.72791906 11.51423097 15.68290587
Te 12.76138695 -0.18904752 5.24241518
Te 4.85935194 15.15980862 15.70133736
Te 10.85682325 3.48392682 5.06488112
Te 11.02393649 3.79801755 15.69772716
Te 8.78623033 7.44408713 5.07180162
Te 8.85944628 7.47979162 15.80057100
Te 6.84144687 10.94054249 4.84314017
Te 7.04564311 11.43879574 15.49756101
192
Time=70000.00000007 pbc="T T T" Lattice="17.12785866 -0.61140913 0.08521921 -7.98305025 15.07917340 -0.83997869 0.20559389 1.08695766 21.01381267" energy=-820.78200328 virial="2.36228187 -0.39991003 -9.43799558 -0.39991003 4.45116410 -1.89375513 -9.43799558 -1.89375513 7.56711008" stress="0.00168203 -0.00007490 -0.00176773 -0.00007490 0.00207327 -0.00035470 -0.00176773 -0.00035470 0.00265689" Properties=species:S:1:pos:R:3
Ge 16.94741395 -0.02591816 10.59427249
Ge 8.95471458 14.43082390 -0.25233235
Ge -1.85877561 4.52284407 10.26409535
Ge -1.93329487 3.82955446 0.13361642
Ge 13.27014605 7.12206269 10.23019045
Ge 13.13149443 6.84953178 -0.29365237
Ge 10.84406202 11.25759774 9.71143690
Ge 10.70545556 10.66143907 -0.32531073
Ge 4.33522890 0.63908684 10.44932786
Ge 4.24017220 -0.11348766 0.10110079
Ge 2.29844546 4.35231673 10.62629901
Ge 2.05446540 4.19655721 0.06887437
Ge 0.19397428 7.90321256 9.93942076
Ge 0.46424485 7.48171901 -0.18108039
Ge -1.86230490 11.58856568 10.00934148
Ge -1.81487924 11.27840776 -0.44562228
Ge 0.81363916 15.11729650 9.94221935
Ge 6.88111589 4.27728425 10.37452834
Ge 6.57777797 3.55701282 -0.08265285
Ge 4.38288427 7.63362746 10.25104511
Ge 4.88248420 8.54290826 20.60346745
Ge 2.51743933 11.42728764 9.76330606
Ge 3.08620548 12.28027543 20.38872988
Ge 13.05026708 0.20458554 10.72191118
Ge 4.70477422 14.10855189 -0.68528920
Ge 11.19618942 3.86999292 10.31200281
Ge 10.67908600 3.13364059 0.05184436
Ge 8.90338749 7.66960574 10.26674283
Ge 6.59380655 11.35947786 9.92232535
Ge 7.22771983 11.88335253 20.27727531
Ge 2.16791304 1.28070714 3.36168561
Ge 2.28127698 2.13786719 13.83023782
Ge 0.34373127 5.34178216 3.48853348
Ge 0.35825767 5.85909677 13.98535960
Ge -1.64109777 9.16157828 2.81916515
Ge -2.00302981 9.63856105 13.59811361
Ge -3.71132310 12.52329688 3.00285283
Ge -3.74171829 13.34633400 13.35323855
Ge 6.41568825 1.08192239 3.37220310
Ge 6.75028913 1.76308082 14.13732324
Ge 4.36608272 4.85615883 3.51367956
Ge 4.54137138 5.39220699 13.84375423
Ge 2.64629159 8.87235701 3.15266565
Ge 2.46859490 9.44438788 13.79359641
Ge 0.39783870 12.65928881 2.84193785
Ge 0.63835284 13.13728684 13.29547231
Ge 10.50051396 0.89316373 3.63646983
Ge 10.88355042 1.71834257 14.32428026
Ge 8.61317206 4.65731899 3.13716961
Ge 8.69155525 5.19900984 14.15743446
Ge 6.73596218 8.61798202 3.31782579
Ge 6.86308815 9.23147667 13.56048233
Ge 4.89287986 12.78357028 13.68634778
Ge 14.85692776 1.07197144 3.57766162
Ge 15.29507816 1.41817503 14.32294158
Ge 13.00837374 4.40643800 3.23076938
Ge 13.20973405 5.16000437 13.66913794
Ge 10.92374487 8.42313646 3.23529227
Ge 10.91337663 9.11499338 13.52788527
Ge 8.76004983 12.15230910 3.06681488
Ge 9.22362309 13.03122739 13.41933400
Ge 0.31687907 3.21894874 17.89998543
Ge -1.57944383 6.86222491 6.56724499
Ge -2.22288945 7.18239947 17.19324551
Ge -4.24894855 10.35223229 6.51235180
Ge -3.76071744 10.98487620 17.38625233
Ge -6.16542741 14.17266892 6.29225214
Ge -5.67669556 14.80734498 16.91451898
Ge 4.55748504 2.29844323 7.03728539
Ge 4.63040185 3.39466333 17.93741080
Ge 2.46900564 6.51210712 6.72826726
Ge 2.23567381 6.89133655 17.11471328
Ge 0.37820362 10.94343626 17.04866596
Ge -1.74337383 13.78850373 6.15535418
Ge -1.57844924 14.70831116 17.01826571
Ge 8.83457163 2.50120098 6.89256476
Ge 8.93611616 3.17266529 17.60742700
Ge 6.40363968 6.20648830 6.89051783
Ge 6.68660904 6.88303128 17.17136191
Ge 4.62077982 10.25412332 6.57073999
Ge 5.20156115 10.38949103 17.14197109
Ge 2.50880214 13.97630512 6.36837107
Ge 2.77395212 14.58986664 16.86479491
Ge 12.97518442 2.32238259 6.84153429
Ge 12.98402244 2.76956915 17.84663153
Ge 11.04039620 6.23884428 6.65407239
Ge 11.14224185 6.86062063 17.33837327
Ge 8.87994489 9.82397981 6.43687314
Ge 9.37125572 10.58298546 17.14713038
Ge 7.07512431 13.74443135 6.31048517
Ge 7.27560763 14.22516129 16.83658754
Te 0.61311079 14.65089874 -0.75925754
Te 8.88694689 7.19652146 -0.12831447
Te 4.66180381 12.41963443 2.87561617
Te 0.22393875 2.75113974 6.90746141
Te 0.50486802 10.42260914 6.61693210
Te 2.32643327 1.72383637 8.97663328
Te 2.44581521 2.10425013 19.46324987
Te 0.29367246 5.57090910 8.53909562
Te 0.35729958 5.85005557 19.24532587
Te -1.80559737 9.02452126 8.49037158
Te -1.40450237 9.52959284 18.88063090
Te -3.81596382 12.87783012 8.42988047
Te -3.56896782 13.51819119 18.87252594
Te 6.58808943 1.53269480 9.04082907
Te 6.86046230 2.20794830 19.44160572
Te 4.58128272 5.16552199 8.68494244
Te 4.69600837 5.67434754 19.37935493
Te 2.37373464 8.92193834 8.50391379
Te 2.71728016 9.46051286 19.03487984
Te 0.64973941 12.90366371 8.21691015
Te 1.01761351 13.26884893 18.67776273
Te 10.79822948 1.34750798 9.23945103
Te 11.08002621 1.80652218 19.40864057
Te 8.89165394 4.96557093 8.58731309
Te 9.08288550 5.57101942 19.20322691
Te 6.71673612 8.63967752 8.71137327
Te 7.29008518 9.33505644 18.87107677
Te 4.72477260 12.56253323 8.22874784
Te 5.16583501 13.13390553 18.64397524
Te 14.95567958 1.31801896 8.84538170
Te 15.02826215 1.65028176 19.42870913
Te 13.19553624 4.75315898 8.74007192
Te 13.21149315 5.54695933 19.34372906
Te 11.29795759 8.59301806 8.71880747
Te 11.34709749 9.30244229 19.09213387
Te 9.09239122 12.50602959 8.19462565
Te 9.42921760 13.04578741 18.77693796
Te 0.05781765 2.72694783 1.87312373
Te 0.33522807 3.12459957 12.31347219
Te -1.80041550 6.48263331 1.54908248
Te -1.59034365 6.89500678 12.19606212
Te -3.81939908 10.14483553 1.22666872
Te -4.01768450 10.76914355 11.82628362
Te -5.71220693 13.59829784 1.11718697
Te -5.72803921 14.45134080 11.54826759
Te 4.47103238 2.53082735 1.91257744
Te 4.65965035 3.04927528 12.03980301
Te 2.44773666 6.33113348 1.60374790
Te 2.71432155 6.88755277 12.21856055
Te 0.61487970 9.88798460 1.36718004
Te 0.68525516 10.67294698 11.96005742
Te -1.67200124 13.55521156 1.28172875
Te -1.63867200 14.35043613 11.76518694
Te 8.66590408 2.16915115 1.90886113
Te 9.00776776 2.94358427 12.42940384
Te 6.69682587 5.83203147 1.79534469
Te 6.84985104 6.55513992 12.35795700
Te 4.88940214 9.42664841 1.42070706
Te 4.90874041 10.24662383 11.88856612
Te 2.58085724 13.59019950 1.04338579
Te 2.94092900 13.95996869 11.82279724
Te 12.75613650 2.07096059 1.62396783
Te 13.30100971 2.52659933 12.49738275
Te 10.92108354 5.96433891 1.74501821
Te 11.01861817 6.22930191 12.13640592
Te 8.87921265 9.85934810 1.60644601
Te 8.98847335 10.00730170 11.95079398
Te 6.84524282 13.39937688 1.17126549
Te 7.22645167 13.88505017 11.84832308
Te 9.10928259 14.74433332 4.64333898
Te 0.41269254 0.90345956 16.00076850
Te 15.10715859 3.52054094 5.03285352
Te -1.63172900 4.44525204 15.68339683
Te 13.22697330 7.09872501 5.20667060
Te -3.77256561 8.58821309 15.50205815
Te 11.09955762 10.97728273 5.06543664
Te -5.61223611 12.04548530 15.41024434
Te -3.82041622 15.11648790 4.65179703
Te -3.60144348 15.64986464 15.25642226
Te 2.28303213 3.76735653 5.30812451
Te 2.55082500 4.43593251 15.75617441
Te 0.36032634 7.75833703 4.95699996
Te 0.30057741 8.34110709 15.57305352
Te -1.75913500 11.33818410 4.64947614
Te -1.45773543 11.92840127 15.34749318
Te 0.44754591 15.00892992 4.58049118
Te 8.78523750 0.59454317 16.00314461
Te 6.66167525 3.77423165 5.31329697
Te 6.66075255 4.30007732 15.74414253
Te 4.64706442 7.52406816 5.13154092
Te 4.69644160 8.01602469 15.54479790
Te 2.58730163 11.37365426 4.91092495
Te 2.89447527 11.83575390 15.34076975
Te 4.85546008 14.80856743 4.73703556
Te 5.22888266 15.21996683 15.18920406
Te 10.70432657 3.32335349 5.21174977
Te 11.16761324 4.11579933 15.65440635
Te 8.99975784 7.34981635 4.98801365
Te 9.04668189 7.65774023 15.67563787
Te 6.80558958 11.15163961 4.96323165
Te 7.23759642 11.65710609 15.38640049
192
Time=80000.00000008 pbc="T T T" Lattice="17.31051881 -0.74362849 0.11782720 -7.87539308 15.16043652 -0.92875601 0.07648535 1.31607175 20.91088699" energy=-820.45236033 virial="-20.88801328 -7.28493359 3.39806623 -7.28493359 -5.85898072 0.16539136 3.39806623 0.16539136 -7.19567728" stress="-0.00264986 -0.00135278 0.00063101 -0.00135278 0.00014097 0.00003071 0.00063101 0.00003071 -0.00010725" Properties=species:S:1:pos:R:3
Ge 0.12275195 0.68454657 10.73042423
Ge 9.36001181 14.30108152 -0.53553053
Ge -1.77597596 4.47766343 10.25689696
Ge 15.23973723 2.88699472 0.11794661
Ge -3.87482953 8.25708651 10.09109591
Ge -3.96494485 7.73379034 -0.20672461
Ge -5.83949504 12.03943997 9.67809872
Ge 11.19450055 10.59899322 -0.45288728
Ge -3.44464748 15.55062531 9.31277439
Ge -3.62241652 14.97228243 -0.21108662
Ge 2.47433277 4.03145946 10.40093199
Ge 2.31125380 3.30560331 0.15814809
Ge 0.29122171 7.99354691 10.12238020
Ge 0.27909478 7.30489568 -0.18123028
Ge -1.75492028 11.72675670 9.70149083
Ge -1.70052275 11.04874091 -0.50576432
Ge 8.67817156 0.30746410 10.80845048
Ge 6.40617466 4.25364998 10.46932591
Ge 6.51751946 4.79448164 20.52782692
Ge 4.58587589 8.03126089 10.34077177
Ge 4.91765175 7.12427894 -0.32462682
Ge 2.82446467 11.52485248 9.84939168
Ge 2.75077723 10.90581411 -0.42123090
Ge 13.31675297 0.37299076 10.64132563
Ge 4.82030386 14.61252052 -0.80318860
Ge 11.18943313 3.94635023 10.33967709
Ge 10.84438373 3.38397455 -0.03795004
Ge 8.87334454 7.80975339 9.91484757
Ge 7.12510763 11.39378836 10.00320805
Ge 6.80614391 12.06406692 20.30168853
Ge 2.33490442 1.11997988 3.76748027
Ge 2.33655225 1.93512413 13.71588207
Ge 0.39996931 5.14236056 3.25845495
Ge 0.15028870 5.95262566 13.95211454
Ge -1.72657108 8.83314534 3.01759990
Ge -1.62860035 9.93292775 13.69863375
Ge -3.42985246 12.56108936 3.01583729
Ge -3.54751830 13.59613901 13.62183659
Ge 6.33771210 1.19241931 4.00364179
Ge 6.73266682 1.73342318 14.03123906
Ge 4.42359633 5.00238644 3.14037546
Ge 4.50460781 5.35986103 13.92699779
Ge 2.54436493 8.97199361 2.91123988
Ge 2.73035922 9.31385915 13.69526335
Ge 0.42327381 12.39795068 2.85911907
Ge 0.94872323 12.94055155 13.21133415
Ge 10.69589618 1.38547702 3.54298333
Ge 10.77937627 1.54687470 14.02186702
Ge 8.77639909 4.89017487 3.28196605
Ge 9.15490151 5.70102607 13.78701752
Ge 7.04051242 8.39885436 3.14653148
Ge 7.22603831 9.27622900 13.56138527
Ge 5.12853183 13.09190865 13.21590045
Ge 15.22908815 0.75273082 3.43362651
Ge 15.21060134 1.69781104 14.36485585
Ge 13.31550345 4.54928998 3.56194491
Ge 13.39519445 5.61317509 13.95133814
Ge 11.15226318 8.61390514 2.90736849
Ge 11.49392178 9.15811422 13.60105681
Ge 9.16016161 12.12024803 2.87749964
Ge 9.28887055 13.02404824 13.41514705
Ge 0.32862699 3.59336706 17.52693733
Ge -1.73719746 6.60023907 6.54280062
Ge -1.92141818 7.33490825 17.51633882
Ge -3.87953120 10.05864115 6.62197128
Ge -3.86329307 11.36429876 17.07353727
Ge -6.21067759 14.26544100 6.08775322
Ge -5.88208092 15.01044281 16.70578892
Ge 4.35529316 2.75578012 7.06535026
Ge 4.47219713 3.59576467 17.75047944
Ge 2.20940821 6.58744081 6.62449238
Ge 2.63759592 7.04667728 17.21987046
Ge 0.62597955 11.06992604 17.04585436
Ge -1.24900275 14.09058918 6.23907913
Ge -1.51349378 14.65570515 16.89339467
Ge 8.81179448 2.27750902 6.85030553
Ge 8.82229227 3.28501224 17.50826072
Ge 6.55170602 6.39751113 6.63792854
Ge 6.78396806 6.84804195 17.23029770
Ge 4.76749974 10.20877525 6.69039158
Ge 4.80150065 10.54624514 17.01812027
Ge 3.05853622 13.76122017 6.45357359
Ge 3.02803182 14.44648605 16.92403572
Ge 13.23610784 2.27790503 6.88671445
Ge 12.90743132 3.22303590 17.80549299
Ge 10.96311147 6.08875452 6.87730641
Ge 10.59835158 6.78463379 17.24161178
Ge 9.09306670 9.96795151 6.43674582
Ge 9.29525125 10.53267695 16.97781103
Ge 7.13532292 13.66775998 6.19503173
Ge 7.18148003 14.28088052 16.98895780
Te 0.74572759 14.71338609 -0.53949627
Te 8.93742044 6.99608170 -0.28558865
Te 4.88887818 12.24460866 2.93372559
Te 0.30625980 2.75718884 6.76449810
Te 0.74390572 10.42337407 6.66801265
Te 2.45674377 1.58539526 8.61763026
Te 2.39433924 2.27826945 19.20891800
Te 0.43065511 5.43301555 8.50137444
Te 0.44591845 5.93723137 19.07306867
Te -1.69415008 9.37627332 8.40397573
Te -1.67919965 10.01535247 18.72464137
Te -3.68425158 13.00127329 8.11571326
Te -3.61975225 13.64957325 18.64843551
Te 6.66318462 1.63395033 8.74409975
Te 6.78676635 2.19056359 19.13861092
Te 4.66642730 5.35164738 8.62556858
Te 4.59995549 6.12211516 19.17629337
Te 2.59930491 9.06856727 8.51015753
Te 2.66487404 9.71661715 18.77245854
Te 0.60831048 13.17523017 8.34498786
Te 0.66608257 13.40657751 18.62497142
Te 10.87005707 1.51343042 9.00151489
Te 10.98381283 2.01286715 19.50378927
Te 9.02466344 5.13902944 8.76941135
Te 8.86146464 5.71097047 19.00773584
Te 7.05878286 9.02062906 8.47441053
Te 7.05078896 9.64510990 18.67627783
Te 5.06335684 12.50778817 8.26686750
Te 4.95557718 13.32031049 18.66240292
Te 15.27829670 1.24555888 8.64987910
Te 15.28437749 1.82574513 19.28150857
Te 13.31830865 5.00734902 8.68640195
Te 13.50839678 5.53930798 19.44712734
Te 11.42135675 8.51585457 8.49989383
Te 11.30414234 9.40505834 18.80410700
Te 9.36094201 12.49259268 8.19096114
Te 9.26468374 12.98408174 18.59339155
Te 0.26892142 2.49104122 1.93190823
Te 0.31482877 3.18943188 12.15193951
Te -1.72953841 6.37365266 1.37807883
Te -1.69876556 7.20083966 11.94110364
Te -3.96961957 10.21660857 1.28350194
Te -3.62725480 10.74273422 11.81204432
Te -5.80094962 13.94080070 1.02933296
Te -5.52997555 14.53235120 11.27283070
Te 4.39502264 2.27740504 1.85302488
Te 4.61905335 2.93829149 12.22787360
Te 2.59098595 6.07664121 1.32697208
Te 2.57943629 7.04888271 11.98862308
Te 0.37923165 9.95004441 1.16200118
Te 0.58636366 10.58886096 11.69470615
Te -1.55193410 13.85083298 1.25028566
Te -1.18540118 14.58048023 11.67441789
Te 8.66166077 2.40072068 2.08677130
Te 9.08060609 3.01587542 12.19241109
Te 6.68825013 5.98554330 1.70484453
Te 7.00438727 6.65027493 12.11475068
Te 4.93289202 9.74680097 1.31858529
Te 4.76836577 10.56046819 11.49537775
Te 2.69977841 13.56531890 1.17387137
Te 3.02540318 14.20554953 11.62043794
Te 13.26665809 1.84024753 1.87019631
Te 13.28980091 2.73031047 12.18537737
Te 11.34669478 6.05992179 1.64111432
Te 11.48290969 6.44951156 12.20497666
Te 9.10639835 9.47857504 1.41091894
Te 9.28355880 10.22548294 11.84575869
Te 7.23319171 13.28596443 1.10020673
Te 7.27310496 14.06683435 11.55319924
Te 9.33322468 14.62690026 4.41874955
Te 9.57611248 15.14485392 14.94903940
Te 15.32418127 3.44399145 5.09820716
Te -1.67488501 4.71320596 15.92714300
Te -3.73879934 7.78259872 4.95498578
Te 13.27867298 8.02033456 15.58763410
Te -5.89095286 11.90243397 4.53447365
Te -5.81889766 12.32011912 15.08328701
Te 4.30174079 0.18172918 5.55546570
Te 4.58255089 0.86617024 15.89519370
Te 2.51124156 3.95562743 5.26428193
Te 2.43955597 4.69220130 15.52593229
Te 0.30461372 7.61762552 4.94931747
Te 0.26281298 8.17984003 15.56853723
Te -1.61886279 11.39959956 4.70281670
Te -1.32474947 12.41213589 15.23083434
Te 0.79288380 15.06414219 4.35972836
Te 8.81685862 0.90821583 15.96357708
Te 6.63723270 3.84616109 5.45456302
Te 6.90247657 4.40372714 15.75555070
Te 4.62265762 7.63241691 5.00886430
Te 4.75881726 8.13470585 15.28590058
Te 2.83996469 11.28239613 4.75995231
Te 2.71014973 12.10314913 15.33991406
Te 12.96410057 -0.17779288 5.60012546
Te 12.98756785 0.50084357 15.85255344
Te 11.32983964 3.74987420 5.08721355
Te 11.23292093 4.40382967 15.81416639
Te 9.03803479 7.46419892 5.17220498
Te 8.76014475 8.05266517 15.45763178
Te 7.06452479 11.20692161 4.84490238
Te 6.94529253 11.78367786 15.12934906
192
Time=90000.00000003 pbc="T T T" Lattice="17.28738663 -1.09931503 -0.07584836 -7.90419562 15.40043130 -0.80015104 0.14401261 1.26903249 20.88185486" energy=-819.96696222 virial="-11.08976645 10.83807528 -3.79351560 10.83807528 -17.00923821 -1.91758348 -3.79351560 -1.91758348 -0.58250718" stress="-0.00082843 0.00200789 -0.00070280 0.00200789 -0.00192508 -0.00035526 -0.00070280 -0.00035526 0.00111817" Properties=species:S:1:pos:R:3
Ge 9.34835568 14.72166772 9.57266987
Ge 9.24421806 15.41742876 19.95686681
Ge 15.38851363 3.13734864 10.31262382
Ge 15.18699747 2.59182484 0.03005587
Ge 13.24694977 7.15897708 9.83571660
Ge 12.95836070 6.27558626 -0.20271039
Ge 11.27335430 11.17070062 10.01374558
Ge -5.79935057 11.56352148 -0.20662810
Ge -3.51872770 15.75474924 9.61127629
Ge -3.61068893 16.35693868 19.98791955
Ge 2.30654147 4.33243927 10.62925241
Ge 2.19823483 3.77918960 0.07811996
Ge 0.11434909 8.27536417 9.97025901
Ge 0.70515253 8.75834120 20.14977594
Ge -1.76997664 11.73317246 9.82423563
Ge -1.64050119 11.31607802 -0.13194606
Ge 0.82619311 15.22844008 9.83916707
Ge 6.56774129 4.17693338 9.98163275
Ge 6.30111811 3.39796323 -0.01875297
Ge 4.58396051 8.01412800 10.08576803
Ge 4.84541499 8.54642896 20.40541727
Ge 2.42465118 11.54684947 10.14787420
Ge 2.74658935 10.95822268 -0.35370887
Ge 5.39051347 15.10239479 9.58731851
Ge 5.07317014 15.80096894 19.95538608
Ge 10.93908053 3.58976642 10.22059139
Ge 10.91786921 3.10400718 0.17656057
Ge 9.00690367 7.52443080 9.85937667
Ge 6.83764517 11.51082462 9.93199614
Ge 6.77375500 10.74832228 -0.54807606
Ge 2.17516997 1.61290243 3.52861981
Ge 2.33730567 1.91540007 13.99688996
Ge 0.37865799 5.28802556 3.22845580
Ge -0.07931974 5.68155676 13.83804066
Ge -2.03291966 8.68969770 3.04928550
Ge -1.53399410 9.69225325 13.55499358
Ge -3.59324746 12.93303662 2.88307734
Ge -3.25963649 13.16862320 13.57260568
Ge 6.56175486 1.00770486 3.46149162
Ge 6.31017926 1.53335573 14.20170354
Ge 4.63710133 4.91989993 3.27575022
Ge 4.64515203 5.36570987 13.74522293
Ge 2.32664848 8.63964540 3.16784948
Ge 2.37172419 9.07406364 13.57836170
Ge 0.97758643 12.33344014 2.85251178
Ge 0.59020567 13.44160877 13.42237318
Ge 10.86542204 0.99881168 3.63040359
Ge 10.80020165 1.35519389 13.93597122
Ge 8.64049356 4.66872602 3.16076766
Ge 9.02660348 5.31463462 13.64897764
Ge 6.79142631 8.75633265 3.19694183
Ge 6.93984521 9.14216836 13.63728139
Ge 4.83197703 13.28238433 13.51184214
Ge 15.19393597 0.51771174 3.48020344
Ge 15.15251625 1.07434527 13.97543955
Ge 13.37415382 4.21626149 3.30276208
Ge 13.16165614 4.99901373 13.63617162
Ge 11.16805124 8.34268588 3.14585123
Ge 11.23707663 8.80831108 13.70391446
Ge 9.22737347 12.09365201 2.87506419
Ge 9.65636787 12.64940914 12.91566137
Ge 0.20552680 3.49619972 17.16049123
Ge -1.81714501 6.82130759 6.81620623
Ge -1.90817592 7.37695064 17.52045580
Ge -3.94314656 10.65855062 6.15797499
Ge -3.85318674 11.06794479 17.19042735
Ge -5.88924980 14.82335138 6.39041029
Ge -6.06692109 15.03078825 16.92816276
Ge 4.33672108 2.69951719 6.99824760
Ge 4.72573366 2.91382199 17.41418017
Ge 2.28288973 6.53344410 6.76345528
Ge 2.75079884 7.07712051 17.28258086
Ge 0.74621502 10.85684786 17.21501933
Ge -1.33890624 14.18676152 6.11478520
Ge -1.20831548 14.58995909 16.85358661
Ge 9.05283486 2.25938115 7.24333440
Ge 8.82234633 3.07443107 17.41002036
Ge 6.60434268 5.99858626 6.39068775
Ge 6.81715112 7.09010801 17.15337075
Ge 4.58806548 10.19137711 6.29487230
Ge 4.97429598 10.80873287 16.83421781
Ge 2.86939474 13.95965730 6.12643154
Ge 2.85582151 14.59213635 16.96797263
Ge 13.15038214 2.08062357 6.52682067
Ge 13.07386393 2.45174604 17.50047130
Ge 11.12421753 6.23398413 6.76321546
Ge 11.13419963 6.64496299 17.24715714
Ge 8.96730742 9.76576687 6.48915602
Ge 9.47325594 10.22959760 16.80437824
Ge 6.81188430 13.61709677 6.33099899
Ge 7.29195546 13.91388028 17.30348434
Te 8.76709373 -0.36960534 0.24172276
Te 8.93310275 7.05196277 -0.31877741
Te 4.79732146 12.22833523 2.81073660
Te 0.36966731 2.95508418 6.71703714
Te 0.65401829 10.48364771 6.63444113
Te 2.38116557 1.71382004 8.82726040
Te 2.24596124 2.15544073 19.26009635
Te 0.21700127 5.50762637 8.38529532
Te 0.48913315 5.99236329 19.00865193
Te -1.71117823 9.30811103 8.29727551
Te -1.42716645 9.99451084 18.67749906
Te -3.66880223 13.08060323 8.18191163
Te -3.54296153 13.71560691 18.51965410
Te 6.70397454 1.32956200 8.97808452
Te 6.82860815 1.99602522 19.08620962
Te 4.70108890 5.18920809 8.36161660
Te 4.70646443 6.02829750 18.87288146
Te 2.71437307 9.21509246 8.52023073
Te 2.85783448 9.69974770 18.62838461
Te 0.70438564 12.96378107 8.29270542
Te 0.83789739 13.68058790 18.71239175
Te 10.92067401 1.14204033 8.94843669
Te 11.13263007 1.68134016 19.12681934
Te 9.10883439 4.90718633 8.50575334
Te 9.07098878 5.59557958 18.85140001
Te 6.93802360 8.82578340 8.51715893
Te 7.12643729 9.56533694 18.57751728
Te 4.90610375 12.63835155 8.18058856
Te 4.91945100 13.30780812 18.75935996
Te 15.43847767 0.76063113 8.74512085
Te 15.29944836 1.44628202 19.13945914
Te 13.52761852 4.49312860 8.70244388
Te 13.15771101 5.25990498 18.98830132
Te 11.11320259 8.50977538 8.55929122
Te 11.29017521 9.22502785 18.71809860
Te 9.44990506 12.36706849 8.14378862
Te 9.44864881 12.71799205 18.71575534
Te 0.19361883 2.49652282 1.62822378
Te 0.33529566 3.29436625 12.34925628
Te -1.76711140 6.34353347 1.24402114
Te -1.87343156 7.00665614 11.92333038
Te -3.67581999 10.46149331 1.36342673
Te -3.47536197 10.90990532 11.94933190
Te -5.87293756 14.28305193 0.95838255
Te -5.37399043 14.80892259 11.76838877
Te 4.60173468 2.24690310 1.83325374
Te 4.69765032 3.08534688 12.10378965
Te 2.69572117 6.19554265 1.61467848
Te 2.53604987 6.87529976 11.71492912
Te 0.56161200 9.92560870 1.48846461
Te 0.53727610 10.46348923 11.79222410
Te -1.34591245 13.87814742 1.18670230
Te -1.38985426 14.47428015 11.67481836
Te 8.70851590 2.13065582 1.86843428
Te 9.00770644 2.85542109 12.04527105
Te 6.70353806 5.87633788 1.58557922
Te 6.98549543 6.57243751 12.08557083
Te 4.75022866 9.51569242 1.19132240
Te 5.04076014 10.44600924 11.77692781
Te 2.84626841 13.44431898 1.09918453
Te 3.23165436 14.11701858 11.51821571
Te 12.99875091 1.75242488 1.76350343
Te 13.34680778 2.19498238 12.02000548
Te 11.07413367 5.57181708 1.58196656
Te 11.27146571 6.44810825 11.99858954
Te 9.00939842 9.65947687 1.37497195
Te 9.33490975 10.11167303 11.82323204
Te 7.22190116 13.22863248 1.10776125
Te 7.44936453 13.85372190 11.58728486
Te 17.16025202 -0.68509492 5.00474185
Te 0.24747418 1.09969105 15.81478509
Te 15.26861774 2.95158765 4.73315732
Te 15.34794965 3.78601494 15.55833661
Te -3.82233587 8.17052955 4.89012714
Te 13.47209061 7.20389477 15.25042801
Te 11.34557854 10.83676087 4.74704176
Te -5.72169455 12.52916692 15.37792317
Te 4.31240826 0.29379625 5.49517880
Te -3.37026538 15.78686752 15.07784980
Te 2.55388341 3.97151848 5.17702181
Te 2.55209481 4.63257161 15.79145559
Te 0.29975339 7.55317982 4.77722400
Te 0.44107607 8.35526521 15.39807272
Te -1.74390787 11.68515639 4.72395449
Te -1.30679794 11.92161764 15.22978303
Te 8.76047631 -0.21793779 5.50143205
Te 8.80140737 0.45934393 15.77267947
Te 6.74820957 3.50179953 5.31770701
Te 6.89016907 4.46010864 15.54608497
Te 4.61915999 7.40382889 4.95782613
Te 4.90598081 8.29881811 15.62266088