192
Time=60000.00000005 pbc="T T T" Lattice="17.31100432 -0.41058129 -0.05994387 -8.40007291 14.99436382 0.41117417 0.14064979 -0.50365766 20.95903303" energy=-820.28392619 virial="-14.37838990 13.82953678 -7.21288824 13.82953678 2.13603047 7.34169514 -7.21288824 7.34169514 1.18070918" stress="-0.00129077 0.00257474 -0.00134287 0.00257474 0.00178384 0.00136685 -0.00134287 0.00136685 0.00160598" Properties=species:S:1:pos:R:3
Ge 17.14364369 -0.62188363 10.57358192
Ge 8.75318142 14.38877048 0.41708154
Ge 15.25471159 3.12103818 10.84559677
Ge 15.17920340 3.16309966 0.17867580
Ge 13.11717248 6.71221385 10.61985062
Ge 12.83942840 7.02690818 0.44390017
Ge -5.89155603 10.82995400 11.01432253
Ge 10.84840152 10.89905142 0.58994590
Ge 4.31987275 -0.05022381 10.30117547
Ge 4.32850968 -0.02969678 0.38820367
Ge 1.96712016 3.50940051 10.74187594
Ge 2.26922810 3.79064457 0.30961482
Ge -0.00861788 7.04974658 10.74246690
Ge 0.27381899 7.58555130 0.46504737
Ge -2.13397980 10.56182056 10.86498737
Ge -1.89980424 11.05944819 0.47603086
Ge 0.17652859 14.44549663 10.76667364
Ge 6.54946663 3.16099446 10.89239567
Ge 6.62065681 3.23467333 0.16532140
Ge 4.55338125 6.85938980 10.45547033
Ge 4.30721970 7.34807372 0.28973035
Ge 2.42046134 10.90181114 10.53441373
Ge 2.25316912 11.22930835 0.46186328
Ge 4.79141971 14.42396666 10.60883916
Ge 12.72243435 -0.29986205 0.16740888
Ge 10.91548678 3.16866940 10.64142130
Ge 10.83928596 3.28021900 0.29269990
Ge 9.11263603 7.14144240 10.78073135
Ge 6.74501497 10.83838012 10.50592587
Ge 6.61801143 11.02390106 0.42860473
Ge 1.88945168 1.00267007 3.61959939
Ge 1.99064231 0.94797491 14.44117187
Ge 0.15250876 4.70456899 3.95670083
Ge 0.15873969 4.78216528 14.09397465
Ge -2.10842733 8.57392570 3.79710193
Ge -1.85818345 8.46406317 14.49669278
Ge -4.14896421 12.21531153 4.12431919
Ge -4.18221769 12.17908040 14.34759242
Ge 6.41946345 1.00554650 3.62797915
Ge 6.47387520 0.53985689 14.49918074
Ge 4.53209290 4.94112380 3.86376628
Ge 4.33875416 4.37384801 14.21179719
Ge 2.21591656 8.56926468 3.82224824
Ge 2.74229238 8.49540355 14.34674716
Ge 0.56590304 12.17293921 3.92964932
Ge 0.10974936 11.93378439 14.28981861
Ge 10.69809390 0.76168572 3.63964620
Ge 10.75291021 0.25053632 14.24451153
Ge 8.48440219 4.54139758 3.75325112
Ge 8.50900994 4.23477711 14.08829151
Ge 6.31676580 8.24367195 3.59768948
Ge 6.80435329 7.91714897 14.31675345
Ge 4.47551125 11.60639790 14.07605451
Ge 15.27120916 0.84131878 3.69217045
Ge 15.17284318 0.47288003 13.90666120
Ge 12.99343048 4.64279972 3.84399951
Ge 13.10904447 4.25703774 14.66535625
Ge 10.65351567 8.37221137 3.61171238
Ge 10.88041896 7.97085127 14.24899581
Ge 8.96966584 11.91288021 3.78660991
Ge 9.20644653 11.74676622 14.34626218
Ge 0.20433311 1.95776778 17.52469583
Ge -2.05206340 5.89712410 7.11615557
Ge -2.10749434 5.55882351 18.13138429
Ge -3.91729761 9.78289093 7.42147921
Ge -4.12366486 9.65892181 18.15844272
Ge -6.35257249 13.33241494 7.37200875
Ge -6.25918187 13.27559105 17.93296319
Ge 4.23133122 1.89120495 6.90436383
Ge 4.38600797 1.56802510 17.93138162
Ge 1.91087106 5.82482995 7.34137506
Ge 2.65903307 5.96132216 17.83356700
Ge 0.22930603 9.71263208 17.74613733
Ge -2.08052755 13.52354224 7.50017167
Ge -1.98903237 13.03910966 18.28468830
Ge 8.64704800 2.37260964 7.28477791
Ge 8.75437083 1.81041998 17.75737177
Ge 6.49212621 5.89323666 7.38176922
Ge 6.83321950 5.65489282 17.88469051
Ge 4.48695035 9.72862630 7.12121307
Ge 4.89844267 9.36765122 17.90103624
Ge 2.08764887 13.59256209 7.24333227
Ge 2.45922215 13.21476681 17.91950411
Ge 13.01002474 1.83337641 6.89834065
Ge 12.87429558 1.51233134 17.53919534
Ge 10.94364814 5.78087792 7.17793647
Ge 11.10308286 5.28852542 18.03820225
Ge 8.63250132 9.45660818 7.15234296
Ge 8.82046950 9.18169935 17.38014385
Ge 6.92718283 13.53553901 7.36944800
Ge 6.54945395 12.66752002 17.95692741
Te 0.28674784 14.68724981 0.88571135
Te 8.85105717 7.07176635 0.38132614
Te 4.79551320 12.06762371 3.83747727
Te 0.02649932 2.37417755 7.16102073
Te 0.08231807 9.75046873 7.28051543
Te 2.07187743 1.07649097 9.05115352
Te 2.29000502 0.72960643 19.37611801
Te 0.16290938 4.80052105 9.13746660
Te 0.09450479 4.62422144 19.60438731
Te -2.02797664 8.36778413 9.14059824
Te -1.73029189 8.36291024 19.72076947
Te -3.98862320 12.24677170 9.22799196
Te -4.09945391 12.11070294 19.64403876
Te 6.65156764 0.85333059 8.82238749
Te 6.52585660 0.39248190 19.50021476
Te 4.73995346 4.51394129 9.08366707
Te 4.70802327 4.39709283 19.61097723
Te 2.70562576 8.30127648 9.08880479
Te 2.48920751 8.30161911 19.68912648
Te 0.30748223 12.22637110 9.23042876
Te 0.45072858 12.04797546 19.47876786
Te 10.99988285 0.80330908 9.01621454
Te 10.89453466 0.53459648 19.24890111
Te 8.86296630 4.62219501 9.05714331
Te 9.01804952 4.11466718 19.33964636
Te 6.97106115 8.28465721 9.06182710
Te 6.90732247 8.05017100 19.38529014
Te 4.51064194 11.85462527 9.02258980
Te 4.72461062 11.60817842 19.79850880
Te 15.20557218 0.62568988 8.83020875
Te 15.48702801 0.54409652 19.44682796
Te 13.02451984 4.47140217 8.95026085
Te 13.23270484 4.25481217 19.59988134
Te 11.21845455 8.28658185 9.23448346
Te 11.13126296 7.90814325 19.73088480
Te 8.99187707 12.09735196 9.18758685
Te 9.00109598 11.58620470 19.60997789
Te -0.15994303 2.38180406 1.86215178
Te 0.01965950 2.15715533 12.43165059
Te -2.06173238 6.06936052 2.03324021
Te -2.02686801 5.99341134 12.55066754
Te -4.28160480 10.12572342 2.04123791
Te -3.84637185 9.83639474 12.80811722
Te -6.21514578 13.90250442 2.23435468
Te -6.20677409 13.36731518 12.88983354
Te 4.42680577 2.43156599 1.73168298
Te 4.54844170 1.98655830 12.45488869
Te 2.59467237 6.20653219 2.20264195
Te 2.34202953 6.03562555 12.75886253
Te 0.16205641 9.95264380 2.15985911
Te 0.29196994 9.65148457 12.64114224
Te -2.11709198 13.56047412 2.45422174
Te -1.87369925 13.28540216 12.72740071
Te 8.72576767 2.23026199 1.96100985
Te 9.00396573 1.90014868 12.39591653
Te 6.62464126 5.77339093 2.10009020
Te 6.83350588 5.76321777 12.60369465
Te 4.41379280 9.43966463 1.99736227
Te 4.68454101 9.25783631 12.53796428
Te 2.46304403 13.32450227 2.30078736
Te 2.50029753 13.23517074 12.68217678
Te 12.99425616 1.96374844 1.92851347
Te 13.19650969 1.68641676 12.41567929
Te 11.01330281 5.77977149 2.16502444
Te 11.06358753 5.61230975 12.39743477
Te 8.76869944 9.55711130 2.08264594
Te 8.98851052 9.55565030 12.78935904
Te 6.83736489 13.26259930 2.24759060
Te 6.84181369 12.94416691 12.84013830
Te 9.07732666 14.11602531 5.64297730
Te 8.99534777 14.12374829 16.30699238
Te 15.19407531 3.23692225 5.21501036
Te -1.93622693 3.42737319 16.18135094
Te -3.92451206 7.47735251 5.59280932
Te -4.03463250 7.15295237 16.05085142
Te -6.22151540 11.14839806 5.73536507
Te -5.94925235 10.88194699 16.35668896
Te -4.10115858 14.68918795 5.83363256
Te 4.28072658 -0.37691401 15.78792996
Te 2.36879364 3.54231459 5.28885412
Te 2.11475479 3.40776649 15.85548692
Te 0.11580074 7.04380533 5.60861702
Te 0.18637839 7.01828331 16.27061390
Te -1.99795309 11.17762729 5.62459178
Te -1.90120236 10.79761656 16.19611156
Te 8.65197462 -0.19798618 5.20250526
Te 0.20942645 14.23299538 16.34953936
Te 6.70074038 3.45644951 5.48910849
Te 6.63258360 2.95497624 16.01361322
Te 4.46233877 7.16238996 5.47864558
Te 4.67125379 6.66342763 15.96164770
Te 2.37389355 10.95691743 5.72859608
Te 2.68493218 10.82169470 16.29352781
Te 13.02410811 -0.26159406 5.28003845
Te 13.22793859 -0.64066254 15.63155187
Te 11.07218197 3.47414704 5.55809496
Te 11.13193074 2.90564497 15.97164941
Te 9.02962245 7.26320259 5.48850102
Te 9.06118856 6.57159437 15.92796968
Te 6.78855180 10.95725983 5.68136487
Te 6.84189393 10.69891819 15.93184109
192
Time=70000.00000007 pbc="T T T" Lattice="17.36126427 -0.56282064 -0.11324253 -8.01803013 15.11530340 0.32913152 0.07714310 -0.15714442 21.12338355" energy=-818.68209702 virial="-14.24436648 -10.50389746 6.45753967 -10.50389746 -15.89353981 -13.10694634 6.45753967 -13.10694634 -13.47714193" stress="-0.00124789 -0.00192789 0.00118522 -0.00192789 -0.00155058 -0.00240566 0.00118522 -0.00240566 -0.00110707" Properties=species:S:1:pos:R:3
Ge -7.72123421 14.92340366 11.18121268
Ge 9.21905594 14.51536364 0.57376568
Ge -1.68571028 3.58620742 10.62095970
Ge -1.68422697 3.81957930 0.59470495
Ge -4.03773968 7.76941704 11.00987025
Ge -3.75890771 7.68933655 0.24742464
Ge -5.72084366 11.60380586 10.59129235
Ge -6.02660334 11.52204659 0.50023719
Ge 4.64600402 -0.19817499 10.30098360
Ge -3.67957538 14.92307254 0.80479007
Ge 2.33996974 3.57488260 10.57599796
Ge 2.69480545 3.83654353 0.23247221
Ge 0.14336164 7.46265984 10.42330274
Ge 0.53572180 7.77094715 0.24194412
Ge -1.55807915 11.05155243 10.84463559
Ge -1.55322631 11.11471126 0.31457965
Ge 0.77314406 14.50696042 11.00569646
Ge 6.48221309 3.52073713 10.92782010
Ge 6.90282128 3.67910203 0.31372569
Ge 4.67620890 6.96372636 10.47295919
Ge 4.57287107 7.34723744 0.23699238
Ge 2.77897618 10.77524512 10.81649515
Ge 2.73159250 11.15571942 0.51596236
Ge 13.32719159 -0.36176793 10.54957238
Ge 4.92578958 14.60216613 0.26741134
Ge 11.14653702 3.34637609 10.64977906
Ge 11.33602188 3.43958967 -0.00176693
Ge 8.79217743 6.93143215 10.92859955
Ge 7.05839515 10.80257059 10.78487338
Ge 7.09619726 10.41153578 21.18401838
Ge 1.92671725 1.28782267 3.67995809
Ge 2.53192417 1.00728174 14.51622387
Ge 0.15733593 5.20574753 3.63905040
Ge 0.50539306 4.82991746 14.36655185
Ge -1.83261864 9.06417001 3.76666736
Ge -1.36418924 8.41329698 14.22988855
Ge -3.48993141 12.73554336 4.04796508
Ge -3.64142946 12.32475073 14.73982665
Ge 6.65415340 1.12529992 3.45730569
Ge 6.91206615 0.73204340 14.17501350
Ge 4.60357446 4.82321182 3.81768303
Ge 4.15228265 4.62832874 14.28345623
Ge 2.87878221 8.40109199 3.70403324
Ge 2.61871273 8.67596955 14.21295787
Ge 0.81570710 12.56332660 4.08968077
Ge 0.84527607 12.08951712 14.25148837
Ge 10.87820263 0.61313561 3.40919412
Ge 10.98976335 0.89184809 13.97117479
Ge 9.01715287 4.81401860 3.44655527
Ge 8.68103319 4.70339043 14.36730942
Ge 6.89190222 8.63371266 3.75103845
Ge 6.90470269 8.73173191 14.32231247
Ge 4.87936938 11.92301378 14.54015370
Ge 15.28665286 0.38494261 3.38114304
Ge 15.73998089 0.86327516 14.21643965
Ge 13.20258288 4.17812698 3.68343159
Ge 13.48936106 4.35454065 14.18852440
Ge 11.38537982 8.22038699 3.45052032
Ge 11.32247642 8.04714405 14.03631634
Ge 9.30159224 12.10294318 3.54224383
Ge 9.47094510 11.97776453 14.44513185
Ge 0.28016950 2.47166399 18.03414993
Ge -1.84587792 6.34540519 6.90003612
Ge -1.47076143 6.01499952 18.02049432
Ge -3.94717409 9.95213811 7.30533604
Ge -4.16129217 9.89067986 18.15174695
Ge -5.69685651 13.70008057 7.40710426
Ge -5.69540655 13.61096373 18.25530052
Ge 4.56131495 2.28276594 7.07872957
Ge 4.61436406 1.91661441 18.13001845
Ge 2.29560378 5.93019005 7.19203346
Ge 2.67414777 6.00744723 17.73022870
Ge 0.18488533 10.04480211 18.05832850
Ge -1.32399679 13.83358511 7.34378271
Ge -1.13882442 13.61539697 18.28605446
Ge 9.15980120 1.94455336 7.11195528
Ge 9.12798763 2.14399775 17.58903093
Ge 6.89718577 6.01059601 6.94666971
Ge 6.99724717 5.57512252 17.61173712
Ge 4.89068757 9.74585675 7.51901244
Ge 4.95683338 9.63151565 17.75630143
Ge 2.68382062 13.42506060 7.21595370
Ge 3.09962410 13.65668022 18.01968484
Ge 13.27824180 2.01070911 7.26603721
Ge 13.13337483 1.94977059 17.67046777
Ge 11.03844017 5.87031440 7.07507283
Ge 11.37286769 5.93734156 17.65065204
Ge 9.19832304 9.66112593 7.05325749
Ge 9.24246240 9.63745145 18.34127927
Ge 7.43571946 13.36273986 7.44319308
Ge 7.22088957 13.72445407 18.10887666
Te 8.87710169 -0.14225782 0.38458965
Te 8.91509218 7.08776486 0.16177899
Te 4.88514427 12.11585248 4.06397347
Te 0.23995168 2.43443523 7.06880563
Te 0.25812297 9.93046888 7.28287963
Te 2.24138728 1.11913316 8.93958109
Te 1.86926985 0.81875996 19.55773383
Te 0.29879069 4.86016180 9.05180982
Te 0.21087883 4.61920229 19.81337916
Te -2.11844215 8.78687766 9.17520335
Te -1.54268925 8.54704301 19.78399847
Te -3.55470965 12.44747535 9.12770197
Te -3.89516109 12.28036864 19.98908378
Te 6.39870350 1.18000061 8.71261782
Te 6.63701766 0.69455566 19.64229711
Te 4.28477773 4.76966605 8.91221320
Te 4.81607161 4.61098498 19.77996774
Te 2.61258993 8.44643053 9.14155524
Te 2.88646954 8.24218412 19.56532928
Te 0.37214423 12.40468084 9.21657888
Te 0.61761264 12.31016185 19.63313274
Te 10.87260618 0.72772843 8.84822070
Te 11.11019921 0.86938446 19.43765276
Te 8.60036247 4.47577562 9.17794566
Te 9.27553682 4.42993678 19.46693692
Te 6.78205850 8.18672733 9.19052263
Te 6.91802563 8.31221208 19.25728696
Te 4.76310080 12.10667511 9.23128486
Te 4.98888416 12.15867801 19.66428156
Te 15.31720208 0.52451977 8.87942469
Te 15.28995358 0.73375923 19.44796195
Te 13.24007399 4.41663382 9.12221900
Te 13.32486227 4.28890906 19.47828997
Te 11.29965766 8.46637178 9.16553261
Te 11.37778973 8.07149589 19.62646026
Te 9.31483568 11.98882903 9.20897927
Te 9.38566260 11.94692361 19.73522460
Te -0.01143519 2.34542992 1.98398725
Te 0.06363769 2.47828014 12.56304479
Te -1.97768424 6.34026776 2.14992206
Te -2.02221640 5.90042758 12.62883547
Te -3.95151181 10.07631976 1.99918169
Te -3.99369707 10.02817218 12.62817307
Te -5.87829225 13.79071194 2.20077729
Te -6.10084931 13.76373665 12.97282802
Te 4.38087165 2.54895870 1.91839245
Te 4.64989114 2.11361373 12.64681660
Te 2.39272913 6.08669665 2.04405246
Te 2.34371876 5.99954979 12.70322777
Te 0.44144275 10.03280336 1.98232181
Te 0.35545640 9.69235743 12.53858239
Te -1.56479862 13.50509186 2.14398044
Te -1.68692951 13.46242426 12.97968828
Te 8.93256304 2.28839554 2.21788525
Te 8.72219601 2.13701479 12.52432442
Te 6.81604080 5.99047957 2.16995809
Te 6.81493540 5.82657251 12.62373035
Te 4.85539516 9.68514773 2.01957349
Te 4.79763619 9.44357445 12.47555746
Te 2.74027701 13.43963978 2.14444078
Te 2.62666497 13.41800862 12.62924596
Te 13.15823724 1.77287554 2.14858213
Te 13.27958499 1.70651229 12.53413903
Te 11.25876654 5.77717019 2.07221424
Te 10.96827301 5.59494114 12.66753624
Te 9.01553711 9.41159849 1.99124857
Te 9.00539885 9.45416840 12.62157362
Te 7.24632608 13.24854094 2.04007765
Te 7.09848249 13.24511873 12.73025667
Te 9.43194459 14.25887740 5.64165997
Te 0.10976705 0.08067550 15.97119867
Te 15.30360447 3.18481352 5.30228526
Te 15.28711205 3.10097772 15.88769168
Te 13.30002818 7.05425157 5.68500568
Te 13.31371469 6.85529993 15.85331696
Te 11.32421181 10.65738940 5.47561884
Te 11.16229981 10.29677914 16.11498707
Te 4.50555394 -0.04215927 5.42689297
Te 4.36239022 -0.17821299 16.20499374
Te 2.41118599 3.67241698 5.38951325
Te 2.39378204 3.22925756 16.10014489
Te 0.40944106 7.38968808 5.50934693
Te 0.28037441 7.19641815 16.31336582
Te -1.62864376 11.44249990 5.55803453
Te -1.69704051 10.85751911 16.24063218
Te 8.76270412 -0.23484240 5.38570223
Te 8.85312182 -0.29123138 15.98438966
Te 6.81999741 3.64834879 5.37701032
Te 6.46671007 3.42118901 16.13838469
Te 4.70311642 7.50157623 5.62416371
Te 4.56626844 7.36014984 15.83105040
Te 2.49746437 11.06107473 5.90353503
Te 2.49707523 10.72630580 16.29975458
Te 4.90387631 14.60144791 6.02229413
Te 4.87782545 14.36989857 16.14586123
Te 11.09037813 3.39493995 5.46383116
Te 11.08844649 3.26860385 16.02650960
Te 8.96129773 7.09104856 5.56395750
Te 8.90923780 7.07241869 15.96438821
Te 7.14998465 10.79084572 5.49897427
Te 7.10747626 11.01629741 15.94808243
192
Time=80000.00000008 pbc="T T T" Lattice="17.39558456 -0.52915449 -0.17377957 -7.96812131 15.26768948 0.29988311 0.33953964 -0.19123772 20.84478544" energy=-818.37753481 virial="-16.56826890 -7.46943648 -3.94440211 -7.46943648 -26.91906241 -9.78610440 -3.94440211 -9.78610440 -4.82853026" stress="-0.00167435 -0.00137089 -0.00072393 -0.00137089 -0.00357406 -0.00179607 -0.00072393 -0.00179607 0.00048028" Properties=species:S:1:pos:R:3
Ge 0.52136689 0.39818861 10.41526717
Ge 9.37648754 14.35635893 0.39808595
Ge 15.31431821 3.05855243 10.20885333
Ge 15.16553875 3.21557271 0.02321406
Ge -3.49247401 7.90111519 10.64901328
Ge 13.39238138 6.94072103 0.03779734
Ge 11.30925672 10.98402144 10.84639579
Ge 11.31408695 10.88031336 0.34363541
Ge 4.35729122 0.12250593 10.67249538
Ge -3.73560181 15.05728550 0.60538886
Ge 2.80715243 3.32656671 10.60941113
Ge 2.31045179 3.34030556 0.04750758
Ge 0.60518156 7.29124081 10.58036077
Ge 0.60039554 7.46371256 0.65529551
Ge -1.86776236 11.28429613 10.83047870
Ge -2.00135388 11.17789600 0.24714097
Ge 1.09659469 14.54542620 10.79702576
Ge 6.76434372 3.39934707 10.44597828
Ge 6.52242389 3.68520753 0.15589351
Ge 4.91079130 7.37153339 10.77970575
Ge 4.75051955 7.54601438 0.51126187
Ge 2.71351022 11.05084357 10.41520676
Ge 2.56620178 11.29876780 0.43851526
Ge 13.49250640 -0.22284339 10.35431518
Ge 12.84908905 -0.23591467 0.07623890
Ge 11.41601070 3.28684618 10.59226383
Ge 10.98032819 3.16789646 0.50140768
Ge 8.94299605 7.21787941 10.64012776
Ge 7.00945490 11.09469887 10.50420796
Ge 6.88279999 11.01906966 0.45452906
Ge 2.07811315 1.22670093 3.61184572
Ge 1.89377118 1.22304979 14.36190427
Ge 0.08162537 4.97249977 3.77007046
Ge 0.25152138 4.95316302 14.25170431
Ge -1.90116550 8.70110652 3.64138180
Ge -1.82627875 8.82619398 14.24863738
Ge -3.27740644 12.25841858 3.94563992
Ge -3.37985810 12.87515445 14.34922587
Ge 6.45728628 0.98773870 3.49524536
Ge 6.98939495 0.83651934 14.46503804
Ge 4.65075267 4.69763000 3.94557296
Ge 4.47445914 4.85955985 14.15270298
Ge 2.49023305 8.56866855 3.47362695
Ge 2.54148607 8.50156071 13.95326026
Ge 0.69427361 12.61489830 3.66919028
Ge 0.62834484 12.21371095 13.96160341
Ge 10.58855503 0.72458407 3.22099077
Ge 11.05128921 0.48531806 13.68579020
Ge 8.92552682 4.48850448 3.64136449
Ge 9.66231221 4.62049995 13.87371714
Ge 6.85851873 8.50932653 3.67280628
Ge 6.95306100 8.24692513 14.19751183
Ge 5.07273259 12.14191698 14.11962158
Ge 15.31046446 0.70226570 3.51728389
Ge 15.67872907 0.31301680 13.76716168
Ge 13.23053763 4.61724051 3.76098917
Ge 13.44019831 4.46924632 14.01510507
Ge 11.32823921 8.39354930 3.95192136
Ge 11.23117465 8.27706141 14.02388473
Ge 9.11809770 12.41911723 3.87025467
Ge 9.62334555 12.01540541 14.01179855
Ge 0.19290107 2.27328006 17.64016286
Ge -1.70532777 6.10944349 7.44524519
Ge -1.79924686 5.99095988 17.55502539
Ge -3.98611454 9.90308067 7.41568567
Ge -3.70253414 9.76538055 17.76319487
Ge -5.97280406 13.87112496 7.25523146
Ge -5.61509546 13.47178399 17.73178662
Ge 4.44765260 2.44392372 7.04763885
Ge 5.20393531 2.31937001 17.63675877
Ge 2.68174085 5.98191420 7.01889692
Ge 2.36207962 6.25561597 17.47143745
Ge 0.80618173 9.92778904 17.89759762
Ge -1.54206585 13.84339088 7.32946835
Ge -1.30791359 13.72182002 17.96115152
Ge 8.97585423 2.03557481 7.27953977
Ge 9.17164918 2.23402220 17.71174391
Ge 6.90541321 5.80694461 7.14753989
Ge 7.17361088 5.93268044 18.10765375
Ge 4.79632515 9.71894185 7.04120725
Ge 5.29492414 9.75280457 17.73740089
Ge 3.09716350 13.71960167 6.89265990
Ge 3.19832125 13.41256262 17.80740980
Ge 13.32476611 1.98386533 6.80191866
Ge 13.46103377 1.36520883 17.39940035
Ge 10.97401293 5.45436843 7.02896540
Ge 11.15583259 5.52942287 17.80495739
Ge 9.06855299 9.68654381 7.32657708
Ge 9.48800088 9.86240961 17.29228605
Ge 7.14724882 13.49755172 7.16559410
Ge 7.39699964 13.31546798 17.80194566
Te 0.83094065 14.83521059 0.46822413
Te 9.07455551 7.33292885 0.30521538
Te 5.11649049 12.32269150 3.67516946
Te 0.21000788 2.50207700 7.06512803
Te 0.83552626 10.03552646 7.07888257
Te 2.42477373 1.24355186 8.85119735
Te 2.48178643 0.88085838 19.13945773
Te 0.39760766 5.04214348 9.04275583
Te 0.44000381 5.02587814 19.17158180
Te -1.33678120 8.73236337 8.99347503
Te -1.58021526 8.56987161 19.38945219
Te -3.52738379 12.52594731 8.85050637
Te -3.40258242 12.66677256 19.28669653
Te 6.69511470 1.02171882 8.94572839
Te 7.28971371 1.03644869 19.19360655
Te 4.65852002 4.67531822 8.75749871
Te 4.78230838 4.90693166 19.25783023
Te 2.98895401 8.46638425 9.03682961
Te 2.80742814 8.75748160 19.27593571
Te 0.76831473 12.31520545 8.95778209
Te 0.88644526 12.30617113 19.32343213
Te 11.21125842 0.83796933 8.80205876
Te 11.35854257 0.75067215 19.09988059
Te 9.31286361 4.49816967 8.89702197
Te 9.16090782 4.48377656 19.59429305
Te 7.04495503 8.34391972 8.76396823
Te 7.22880887 8.42957858 19.21871766
Te 5.22675427 12.55666001 8.87664693
Te 5.21301280 12.24088699 19.42386554
Te 15.44163174 0.92651588 8.63170274
Te 15.66769589 0.43905712 19.20945188
Te 13.60008686 4.48571591 8.61347231
Te 13.46881040 4.34868109 19.16403834
Te 11.62375798 8.28090902 8.97529552
Te 11.80856528 8.11246163 19.25094107
Te 9.29721968 11.98023503 8.99565984
Te 9.77804814 11.90002930 19.24155987
Te 0.23374095 2.40305379 2.03390594
Te 0.41903082 2.72932193 12.44617067
Te -1.69934901 6.20292090 2.13864055
Te -1.37266145 6.62098912 12.48839874
Te -3.92589403 9.89857449 2.14294210
Te -3.85485260 10.00784892 12.61205049
Te -5.72951076 13.89400324 2.00459939
Te -5.68204622 14.04425719 12.34279835
Te 4.43850000 2.34985602 2.07223580
Te 4.79943741 2.33345943 12.44179561
Te 2.48531723 6.09051652 2.10902130
Te 2.57735078 5.94565151 12.44478297
Te 0.48190811 10.21519671 1.91142194
Te 0.63151403 9.96472384 12.31777536
Te -1.52644780 13.84386813 2.22046166
Te -1.35698946 13.86874137 12.31684983
Te 8.78190325 2.36317390 1.84401027
Te 9.30627380 2.10517187 12.25544254
Te 6.76752302 5.99179829 2.03696940
Te 7.23977717 6.07576297 12.39908140
Te 4.84249541 9.79377297 2.08556513
Te 4.96587524 9.74207489 12.35705755
Te 3.10296133 13.68115093 2.12424815
Te 3.23598234 13.62880995 12.41023951
Te 13.35811419 2.20138284 1.87506367
Te 13.52995144 2.01542158 12.12559766
Te 11.27145295 5.80375344 1.88397789
Te 11.55492002 5.76827249 12.14925651
Te 9.23212875 9.84787389 2.08930897
Te 9.23797558 9.72936880 12.37996418
Te 7.27885090 13.48750869 1.85350311
Te 7.27184133 13.26750456 12.39724987
Te 9.42371525 14.63855039 5.40422444
Te 9.56237153 14.54907310 16.16691123
Te 15.26918753 3.37779746 5.25741673
Te -1.68370476 3.69876927 15.80843723
Te -3.83230470 7.63306293 5.66712175
Te 13.43239608 7.07278902 15.70417507
Te -5.60430623 11.46082045 5.62700358
Te 11.60681930 10.76377288 15.75260441
Te 4.18677109 -0.15482990 5.50617243
Te 4.50756555 -0.19441920 15.75573065
Te 2.45578355 3.54383834 5.34370987
Te 2.55773959 3.85916070 16.10116997
Te 0.42196172 7.35012937 5.60955385
Te 0.48822421 7.59231345 15.74808584
Te -1.32521773 11.25646237 5.47453439
Te -1.38916435 11.32051103 15.93168163
Te 0.92110743 14.87410675 5.31980370
Te 1.14887646 14.79318607 15.91426329
Te 7.01374851 3.51368849 5.41038741
Te 6.90657443 3.31466792 15.90024475
Te 4.90068780 7.19601467 5.25787828
Te 5.12920863 7.14024006 15.95720472
Te 3.03163864 10.97927865 5.32178306
Te 2.96524788 11.23416012 15.64298912
Te 5.28828168 14.78559523 5.53679358
Te 5.56020024 14.52706490 15.76786779
Te 11.08869240 3.40872081 5.10884475
Te 11.51357959 3.31469888 15.76876611
Te 9.17120055 7.22776231 5.60883076
Te 9.40648548 7.08559961 15.55072047
Te 7.42096194 10.79624954 5.43434156
Te 7.42408467 10.93748992 15.69659511
192
Time=90000.00000003 pbc="T T T" Lattice="17.21816916 -0.48037201 -0.33575449 -8.02292802 15.06857062 0.71280808 0.48911994 -0.55342296 21.03691684" energy=-818.85020947 virial="-2.64089331 -8.17512149 -3.10081044 -8.17512149 -11.61317022 -7.61761740 -3.10081044 -7.61761740 -1.54967256" stress="0.00089209 -0.00151794 -0.00057575 -0.00151794 -0.00077387 -0.00141443 -0.00057575 -0.00141443 0.00109471" Properties=species:S:1:pos:R:3
Ge -7.51501534 14.74991924 11.41291146
Ge 0.15245952 0.02441272 0.30455579
Ge -1.51824076 3.59391830 10.72305109
Ge -1.99906755 4.16748800 0.19672222
Ge -3.46454319 7.24956929 10.85614595
Ge 12.98909546 7.07048597 0.23243372
Ge -5.58976569 11.08516671 11.31351980
Ge -5.91607221 11.47220672 0.63899006
Ge 4.47440113 -0.21276772 10.47466955
Ge 4.20078689 -0.07843242 0.29066099
Ge 2.45026822 3.60921522 10.86396797
Ge 2.17667263 3.57938595 0.27185262
Ge 0.60172673 7.05594161 10.62998076
Ge -0.01387810 7.40423176 0.62514903
Ge -1.27191006 11.08173484 11.12461145
Ge -1.57201694 11.07713700 0.67667759
Ge 8.49020003 -0.27424288 10.49433711
Ge 6.98074594 3.21960661 10.88049346
Ge 6.77397379 3.44986561 0.30008736
Ge 4.59346971 7.43127740 10.55121402
Ge 4.39407121 7.44595791 0.49274707
Ge 2.99834489 11.07924715 10.84087301
Ge 2.42121967 10.91178753 0.54329819
Ge 5.37116808 14.35782643 10.84874287
Ge 13.13797153 -0.26475359 0.00123371
Ge 11.50622986 3.03348814 10.60262078
Ge 10.80491269 3.41970766 0.42887887
Ge 9.29084794 6.88509171 10.73701112
Ge 7.26764231 10.66242058 10.88281280
Ge 6.83143169 11.21492393 0.41665349
Ge 2.47782535 1.07320884 3.88214789
Ge 2.68986307 0.87745194 14.45099180
Ge 0.11895798 5.15929602 3.90271246
Ge 0.39808866 4.26640997 14.50310929
Ge -1.61846804 8.43227411 4.08768686
Ge -1.43841854 8.27479920 14.97667983
Ge -3.51954893 12.50587194 4.19910849
Ge -3.57563988 12.13751199 14.72557686
Ge 6.66671671 1.17814381 3.79051959
Ge 7.14107661 0.85736457 14.23297390
Ge 4.55347763 4.59747095 3.43937079
Ge 4.53111528 4.26510269 14.44946121
Ge 2.75341518 8.56829078 4.03044931
Ge 2.87222711 8.20238118 14.47090584
Ge 0.31337614 12.18425414 3.90783695
Ge 0.91779405 11.80070588 14.48179492
Ge 11.35666159 1.10000958 3.69069669
Ge 11.27116163 0.50552349 13.84157469
Ge 8.58530838 4.92099248 3.59467264
Ge 9.22880355 4.51129821 14.06684414
Ge 6.95084236 8.52498309 3.53863983
Ge 6.85895233 8.15704533 14.37238969
Ge 5.09359279 11.94328293 14.48212478
Ge 15.15578834 0.77738502 3.74277462
Ge 15.56677214 0.41164733 13.63231312
Ge 13.04266630 4.68537723 3.81984020
Ge 13.47787407 4.10309040 14.08086261
Ge 11.15779249 8.45147921 3.62433263
Ge 11.59287494 7.89689593 14.19869829
Ge 9.20931707 11.94644716 4.13371939
Ge 9.28892126 11.68661993 14.68806291
Ge 0.50675201 1.82250050 18.06268521
Ge -1.88428870 6.30800619 7.18844132
Ge -1.19705775 5.29243296 18.00976413
Ge -3.45219737 9.65161970 7.64153691
Ge -3.58824237 9.51988044 18.10589061
Ge -5.38307368 13.24550740 7.87938349
Ge -5.36274262 13.33174002 18.33641080
Ge 4.09102828 2.25875293 7.04170521
Ge 5.05108272 1.76488820 17.96954354
Ge 2.69742236 5.88210132 7.48338543
Ge 2.82469083 5.46610942 17.76294107
Ge 0.68672947 9.45258897 18.18802773
Ge -1.28334343 13.59666164 7.58604569
Ge -1.06880534 12.83233861 18.32794871
Ge 9.02879479 2.04645092 6.87773597
Ge 8.94325547 1.79255122 17.43138930
Ge 7.12486745 5.81304942 7.18208241
Ge 7.01435493 5.79029765 17.75338992
Ge 4.82023428 9.31691894 7.22332681
Ge 4.90771817 9.13893283 18.15578978
Ge 2.82375520 13.59917495 7.66884308
Ge 3.22984746 13.13275306 18.15773503
Ge 13.13278223 2.15255092 6.85582552
Ge 12.82976510 1.80999153 17.54618795
Ge 11.10948815 5.79902343 7.73425834
Ge 11.25158853 5.61557260 17.91518993
Ge 9.11637884 9.59637675 7.41512541
Ge 9.35629506 9.13041276 18.02497459
Ge 7.26804608 13.06809910 7.59631396
Ge 7.29799525 13.02206989 18.18846859
Te 0.67263276 14.62639553 0.72012190
Te 8.89189517 7.51241200 0.14135533
Te 4.88913500 12.34430008 3.90222735
Te 0.30777287 2.16665496 7.33957873
Te 0.49234599 10.16365197 7.43926785
Te 2.41041082 0.82819764 8.86010125
Te 2.68630782 0.58124916 19.39181118
Te 0.37426240 4.86071586 9.14759199
Te 0.95010940 4.37272583 19.61665629
Te -1.51616037 8.76337245 9.37127704
Te -1.47843853 8.03050504 19.93954012
Te -3.50804528 12.16678038 9.60628862
Te -3.37373582 11.85241075 19.82653951
Te 6.44517815 0.81084890 8.80545166
Te 7.01905353 0.36735194 19.27983153
Te 4.63379594 4.47733902 8.87271286
Te 5.03630323 4.25086766 19.09265920
Te 2.77939021 8.52991053 8.96816077
Te 2.88029140 7.73338325 19.65984636
Te 0.63706815 12.50547033 9.56584631
Te 0.93532106 11.67003413 19.86847023
Te 10.86770659 0.78954793 8.85760110
Te 11.20239225 0.42631221 19.31169471
Te 9.03300547 4.30443272 9.07985940
Te 9.40221473 4.12497220 19.47888059
Te 7.01075267 8.27947643 9.00436121
Te 7.21605513 8.07584988 19.49400316
Te 4.89795032 12.12535545 9.27941662
Te 5.10556207 11.62103223 19.90495550
Te 15.27918445 0.60048779 8.57198684
Te 15.57636648 0.26193970 19.18768629
Te 13.46988230 4.47299580 8.93436004
Te 13.68808818 4.06637462 19.09086820
Te 11.42021109 8.21127187 9.04736763
Te 11.66401053 7.83428361 19.50099970
Te 9.23483356 11.93719646 9.17769734
Te 9.47668503 11.47477934 19.74983921
Te 0.13417218 2.50964155 1.90638750
Te 0.58319124 2.24591362 12.52303887
Te -1.93595672 6.20118599 2.17682107
Te -1.69525883 5.66673510 12.68475117
Te -3.90339960 9.78273651 2.35553630
Te -3.75301243 9.55452927 12.82728113
Te -5.86378890 13.63058287 2.43224216
Te -5.61666856 13.53222279 13.02907013
Te 4.55534560 2.49302190 1.66208998
Te 4.54315183 2.05100507 12.10945638
Te 2.50451768 6.05714834 1.94677858
Te 2.54940029 5.86769823 12.63492039
Te 0.42157554 9.66201445 2.43418999
Te 0.65925190 9.44488256 12.73754750
Te -1.68273117 13.56672002 2.56615806
Te -1.36867063 13.24469107 12.98965211
Te 8.61393497 2.24621172 1.98229190
Te 9.11048882 1.96636933 12.38237510
Te 6.68015246 5.87227577 1.85894884
Te 6.87230644 5.66642137 12.34722737
Te 4.68420606 9.59822532 2.23456852
Te 4.62325291 9.48483832 12.68805705
Te 2.63618109 13.28805519 2.41946097
Te 3.06734580 13.33698723 12.92768156
Te 13.04673918 2.10675588 1.72281607
Te 13.34969539 1.72019040 12.35149879
Te 11.12455867 5.93939006 2.06450997
Te 11.31916533 5.63898083 12.42801538
Te 8.94710869 9.98062486 2.14532653
Te 9.08687289 9.32290409 12.61800330
Te 7.43022139 13.29252223 2.33788940
Te 7.02570448 13.12676928 12.83085326
Te 9.30009224 14.40088442 5.83655698
Te -7.41392347 14.51007838 16.61610576
Te 15.33278946 3.11568442 5.30418332
Te 15.62849893 2.55651267 15.74814346
Te 13.26635953 6.90165993 5.52922235
Te 13.70257844 6.34044294 15.99477468
Te -5.68777808 11.13867566 6.13220849
Te 11.33889760 10.16183478 16.07493242
Te 4.36802351 -0.14614287 5.49819395
Te -3.35742303 14.30408391 16.46104192
Te 2.58398006 3.56021348 5.16279971
Te 2.75633179 2.93422556 16.17842250
Te 0.39129473 7.19786854 5.65023357
Te 0.52364814 6.51947262 16.08960291
Te -1.70618268 11.15409981 5.87056985
Te -1.26893040 10.74123872 16.21253730
Te 0.66556352 14.63075918 5.89348009
Te 0.89983978 14.37385345 16.36259592
Te 6.84880710 3.46403662 5.49857187
Te 6.87977124 3.03392600 15.93910170
Te 4.98848216 6.90768800 5.73059954
Te 4.75608511 6.83203780 16.08891975
Te 2.67512042 11.00073210 5.74385891