192
Time=60000.00000005 pbc="T T T" Lattice="17.17311737 0.47799157 0.48480525 -8.74888767 14.55431746 -0.04335333 -0.14233454 -0.08424320 21.22004855" energy=-816.17840481 virial="4.28949130 -0.69504044 -16.24197313 -0.69504044 -0.27952474 -11.87384433 -16.24197313 -11.87384433 -7.83595478" stress="0.00220566 -0.00012882 -0.00301036 -0.00012882 0.00135882 -0.00220075 -0.00301036 -0.00220075 -0.00004172" Properties=species:S:1:pos:R:3
Ge 16.89441793 0.52656740 11.03168659
Ge 8.19879111 14.64804000 0.78707924
Ge 14.64850760 4.09497109 11.44346175
Ge -1.99272766 3.91798408 0.12671055
Ge -4.28333528 7.49516408 10.78975666
Ge -4.18877368 7.36344360 0.50054471
Ge 10.36800946 11.43675700 11.14997639
Ge 10.61952609 11.11317427 0.47780850
Ge -4.36843927 14.30619994 10.72129450
Ge 4.40743678 0.04741417 21.32980212
Ge 1.96479135 3.45628233 10.58579392
Ge 2.42183078 3.83072128 0.13467663
Ge -0.08246831 7.06409285 10.65626906
Ge -0.20925643 7.47136564 0.51233972
Ge -2.14362114 10.98622569 10.58730457
Ge -2.53096108 10.94445292 0.42487483
Ge -0.19194514 14.71024143 10.82932417
Ge 6.59223744 3.62256765 11.07950846
Ge 6.03538297 3.96355689 0.66182598
Ge 3.90618924 7.24892828 11.07582839
Ge 4.30847844 7.32411631 0.44929566
Ge 2.23963911 10.80975710 11.08090321
Ge 2.06740937 11.02518416 0.23336942
Ge 3.93874455 14.85066383 11.07503302
Ge 12.88441250 0.75786371 0.69617628
Ge 10.52665725 4.28857223 11.09894641
Ge 10.73070029 3.94514214 0.53378827
Ge 8.21245276 7.50596784 11.08209811
Ge 5.91258573 11.75709282 11.07217603
Ge 6.42989523 11.23314037 0.88649128
Ge 2.07033895 0.85890221 3.98144181
Ge 2.36325254 0.92361259 14.48593802
Ge -0.07545488 4.76103549 3.83765632
Ge -0.08497574 4.62159841 14.38284395
Ge -2.26260678 8.70096279 4.08046803
Ge -2.09387363 8.83174032 14.44111205
Ge -4.39940561 12.31003750 4.03493519
Ge -4.42923679 12.19202827 14.37312977
Ge 6.52241723 1.42555586 3.61326498
Ge 6.44151213 1.35330828 14.45717328
Ge 4.08599242 5.02374807 3.60646415
Ge 4.06341894 5.12615180 14.49747114
Ge 1.80083326 8.82740016 3.83620809
Ge 2.10284433 8.63405913 14.62292502
Ge -0.24399971 12.47740256 3.70456035
Ge -0.29121941 12.29848823 14.29990439
Ge 10.66216742 1.44601251 3.98757482
Ge 10.43873541 1.07120079 14.96265277
Ge 8.54902343 5.27345121 4.05642152
Ge 8.35760057 5.19339631 14.72059999
Ge 6.11048977 9.15288445 3.79232558
Ge 5.92681987 8.60153845 14.92341036
Ge 4.00579704 12.48117520 14.86400610
Ge 15.36472277 1.86790531 4.02445418
Ge 15.24775603 1.60726059 15.22621738
Ge 12.83091579 5.29472548 4.08785543
Ge 12.51052424 5.05398423 14.83691297
Ge 10.49446766 8.77290775 4.32019858
Ge 10.47155010 8.81733744 14.61712493
Ge 8.62036265 12.70873242 4.10077031
Ge 8.44505049 12.20421675 14.60793786
Ge 0.20460399 2.33252464 17.88643075
Ge -2.41149231 5.92463598 7.00756045
Ge -2.40236544 5.97106841 18.07459514
Ge -4.36245146 9.63574183 7.33670865
Ge -4.53354308 9.65328548 17.82139943
Ge -6.97842506 13.18316217 7.49738612
Ge -6.61452889 13.36408445 18.23159361
Ge 4.29583378 2.22533494 7.48511491
Ge 4.45608028 2.31084889 17.99124556
Ge 1.94153681 6.06724839 7.51742426
Ge 1.73083410 6.18212247 17.91032579
Ge -0.07099081 9.63470765 18.06697190
Ge -2.20346792 13.61184476 7.28814789
Ge -2.12594518 13.44962643 18.11733502
Ge 8.79227790 2.76824771 7.40926924
Ge 8.65690455 2.87629408 18.39569908
Ge 5.89873866 6.42995353 7.42355348
Ge 6.47810499 6.20798545 18.47422341
Ge 4.16271317 9.67909917 7.36764341
Ge 4.21972665 9.91484026 18.31472417
Ge 1.98141689 13.85458392 7.11986979
Ge 1.89853793 13.27807074 18.31827204
Ge 12.97645279 2.76133330 7.48043179
Ge 12.54636365 3.18050673 18.54403884
Ge 10.25563697 6.62373388 7.35599730
Ge 10.75906105 6.30119510 18.21347822
Ge 8.40801804 10.08663756 7.94502258
Ge 8.32884290 10.24791453 18.13912372
Ge 5.88141602 13.69042382 7.46337769
Ge 5.95420953 13.70861044 18.44502720
Te 0.04018828 14.64237613 0.48353163
Te 8.64376168 7.67431146 0.67344595
Te 4.07512440 12.22625919 4.12199084
Te 0.31788562 2.23582641 7.22846278
Te -0.01265369 9.70863552 7.34834049
Te 2.39609727 1.12757423 9.25643462
Te 2.28554625 1.20834692 19.57472741
Te -0.23602224 4.91168685 8.88660118
Te 0.02123774 4.87315098 19.70773343
Te -2.43974095 8.48025452 9.10218479
Te -2.49784687 8.46809925 19.57778383
Te -4.54994438 11.88097401 8.86728803
Te -4.43372379 12.10509550 19.62555043
Te 6.18307248 1.55755013 9.18162957
Te 6.40812280 1.45057540 19.90044869
Te 4.00229267 5.01257019 9.23682650
Te 4.24019225 4.87864426 19.59597351
Te 2.28680781 8.85057729 9.30976142
Te 2.20386160 8.52423951 19.53668777
Te -0.28636260 12.40923468 9.00496529
Te -0.14606795 11.96182149 19.56377700
Te 10.59228051 1.36386401 9.35496468
Te 10.66974614 1.55420344 20.06787035
Te 8.29522874 5.07609283 9.29427680
Te 8.60477109 5.21213214 19.99863466
Te 6.15593505 8.93893117 9.33491299
Te 6.21568633 8.62593985 19.74693224
Te 3.97499594 12.65315902 9.14853914
Te 4.08055051 12.21163526 19.97010634
Te 14.79014720 1.71505309 9.22725982
Te 14.64151127 1.72457409 20.30290687
Te 12.58891609 5.39134654 9.35096190
Te 12.71969934 5.35900950 20.20313121
Te 10.41380758 8.80936430 9.57738371
Te 10.58387942 9.03917966 19.74636616
Te 8.05341814 12.75606094 9.31966508
Te 8.28945485 12.55892722 19.92186640
Te 0.09146080 2.64611842 1.86835794
Te -0.45100428 2.59806252 12.35634656
Te -2.24058725 6.01957929 1.94431918
Te -2.19695719 6.19169181 12.35158004
Te -4.61023582 9.75708378 2.08361783
Te -4.74297943 9.50699656 12.45330143
Te -6.70882906 13.32008641 1.77953404
Te -6.70392507 13.41458200 12.48353886
Te 4.33817643 2.26663399 1.88202182
Te 4.04922980 2.28763446 12.73707026
Te 1.86325270 6.18763856 1.77169356
Te 2.15356018 6.13803185 12.78053036
Te -0.27929458 10.02093911 2.11766700
Te -0.24259776 9.78903168 12.52450285
Te -2.37734572 13.52645240 2.25863733
Te -2.30029146 13.06374774 12.58252012
Te 8.73768414 2.84861343 2.03789718
Te 8.48812530 2.57049104 12.80549043
Te 6.37392398 6.54134575 2.26409576
Te 6.28931744 6.50245862 13.14180781
Te 4.10397632 9.82624988 1.92434677
Te 4.17394906 9.87646044 12.91635351
Te 1.95464528 13.31193808 2.25462569
Te 1.88865357 13.42242434 12.67627772
Te 12.75295144 3.03123526 2.40551585
Te 12.47415964 2.77783628 12.95351231
Te 10.81030825 6.67618956 2.22964749
Te 10.57840559 6.36305259 13.03396863
Te 8.46421617 10.26263709 2.55332279
Te 8.38001402 9.99756745 12.87725683
Te 6.04923699 13.57860753 2.43723384
Te 6.06163614 13.94922956 12.71510465
Te -0.04987700 0.08463056 5.47403820
Te -0.10045102 -0.00879744 16.66763304
Te -2.20342153 3.64256066 5.11274691
Te -2.08041635 3.54715766 16.17832630
Te 12.57761636 7.80581934 5.79271694
Te -4.29391532 7.17334110 15.91966436
Te 10.60872292 11.24057275 5.96894865
Te -6.55867455 10.94227443 15.88854747
Te 4.36852297 0.28672882 5.46203263
Te -4.59613301 14.37803169 16.12593814
Te 2.27797439 3.87887085 5.23157848
Te 1.94662414 3.84199388 16.16999224
Te -0.23689871 7.17148355 5.22679159
Te -0.21759708 7.27229152 16.10169824
Te -2.43847636 11.17395740 5.61571212
Te -2.35092426 10.99227306 16.02901975
Te 8.62187734 0.36004944 5.63434204
Te -0.30649846 14.48448038 16.39091223
Te 6.47437222 4.19683919 5.56515646
Te 6.26060095 3.64162047 16.03081469
Te 4.01549344 7.25128560 5.61386366
Te 4.12239206 7.30766815 16.34138038
Te 2.12566189 10.98896357 5.80244753
Te 1.91016317 11.25612176 16.35904979
Te 4.08922481 14.81423515 5.65081550
Te 12.70123746 0.48256378 16.53533919
Te 10.86185593 4.15582959 5.93380607
Te 10.47709312 3.94567058 16.44168714
Te 8.40519270 7.80102831 5.75400282
Te 8.28038431 7.31584005 16.51078644
Te 6.55617587 11.16465485 5.79224738
Te 6.18244569 11.66977658 16.29627534
192
Time=70000.00000007 pbc="T T T" Lattice="17.13697460 0.48402270 0.08748865 -8.79180369 14.73964026 -0.01648216 -0.04738040 -0.09553450 21.14914035" energy=-818.91576368 virial="-12.63754183 -3.70515525 -1.63468940 -3.70515525 -19.17708050 0.53807136 -1.63468940 0.53807136 -19.70014596" stress="-0.00092552 -0.00068220 -0.00030098 -0.00068220 -0.00212959 0.00009907 -0.00030098 0.00009907 -0.00222590" Properties=species:S:1:pos:R:3
Ge 8.24439365 14.98314567 10.80092606
Ge 0.40620309 0.06801881 0.33179260
Ge 15.03825363 3.89517509 10.52123713
Ge 14.74933706 4.09210168 0.53612144
Ge -4.19131422 7.09128306 10.46931988
Ge 12.59543077 7.83678853 0.11248095
Ge 10.54065630 11.41978543 10.79772166
Ge 10.25139506 11.50380670 0.47418499
Ge -5.12604710 14.73588092 10.73976499
Ge 4.28927746 0.16565435 0.09692448
Ge 1.75347790 3.58227032 10.88124735
Ge 2.34571711 3.67285301 0.36974135
Ge -0.26338532 7.65899654 10.65520715
Ge -0.27015795 7.50842559 0.15090750
Ge -2.58240420 11.08948737 10.77077554
Ge -2.21675338 11.11136770 0.10377522
Ge -0.19576905 14.52876838 10.92878110
Ge 6.10819685 3.81966196 10.63392093
Ge 6.27546523 3.66700585 21.08711216
Ge 4.04143796 7.42681625 10.53976608
Ge 4.09778185 7.58108845 0.13927339
Ge 2.36229215 11.12254991 10.58425033
Ge 1.94930159 11.23650574 0.41853251
Ge 12.74213438 0.59340955 10.58932916
Ge 4.10713885 14.76294643 21.12629908
Ge 10.44476831 3.88363181 10.78126787
Ge 10.52493434 3.63000428 0.34237925
Ge 8.38404274 7.77597928 10.78491789
Ge 6.13143082 11.44489368 10.88974081
Ge 6.39793520 11.29544031 0.38740149
Ge 1.98446329 1.49579241 3.61084239
Ge 2.17891914 1.20564892 14.31985883
Ge -0.31227340 5.10360111 3.78527891
Ge -0.11866746 4.80604326 14.19532823
Ge -2.47651222 8.81222185 3.73538532
Ge -2.36725660 8.42810701 14.31183426
Ge -4.38518668 12.43393141 3.56154170
Ge -4.33920611 12.17374410 14.10976381
Ge 6.56549654 1.06505045 3.91412453
Ge 6.48511538 1.41037452 14.31019777
Ge 4.13574141 4.90867706 3.56851513
Ge 4.19726758 5.09170940 14.45103648
Ge 2.06835583 8.66525635 3.75520693
Ge 1.99293577 8.75086857 14.19702528
Ge -0.70525310 12.25497433 3.71481062
Ge -0.22786713 12.49278842 14.36455301
Ge 10.67251519 1.15554554 3.70797586
Ge 10.57686094 1.15993271 14.71590421
Ge 8.44009389 5.13265311 3.55071613
Ge 8.73379717 5.21173855 14.09642884
Ge 6.18964235 8.57693469 3.45279909
Ge 6.55651576 8.68823452 14.18559358
Ge 4.18289520 12.69210276 14.56407842
Ge 14.80178130 1.60037442 3.94662496
Ge 14.57770469 1.71275849 14.40619297
Ge 12.44481293 5.42343965 4.06904198
Ge 12.81919320 5.46216849 14.23172609
Ge 10.46685865 8.76709290 3.64627175
Ge 10.31679666 8.94335030 14.19629792
Ge 8.14514123 12.93533445 3.71174365
Ge 8.15689594 12.63250145 14.20006609
Ge -0.15265084 2.14957899 17.72707749
Ge -2.07310328 6.23629907 7.54065914
Ge -2.31666715 6.04550189 17.65947053
Ge -4.75085377 9.90621033 6.96875972
Ge -4.62541479 9.53709938 17.89156995
Ge -6.55495618 13.30525841 6.94289043
Ge -6.67761543 13.27713212 17.58655246
Ge 4.10002583 2.57308642 7.03955206
Ge 4.31389832 2.45987220 17.70021532
Ge 1.95515194 6.42532339 7.12842897
Ge 1.80068499 6.01306133 17.97467483
Ge -0.33929998 10.04363668 17.43385756
Ge -2.29106507 13.70174536 7.39938857
Ge -2.35397114 13.39229188 18.24993443
Ge 8.18010131 2.27356159 7.07271561
Ge 8.62597676 2.83629350 17.84793239
Ge 6.25897074 6.40880853 7.33504267
Ge 6.48445682 6.08047938 18.05611278
Ge 3.89885102 9.78382590 7.07314555
Ge 4.29229597 9.98146412 18.02605495
Ge 2.09811469 13.68643841 7.29876363
Ge 2.10703668 13.35807523 18.01387540
Ge 12.44707168 2.89430088 6.94858526
Ge 12.95000163 2.82949404 18.12616484
Ge 10.41779423 6.47368164 7.18497327
Ge 10.58211083 6.24148024 17.88017447
Ge 8.07611186 9.86561911 7.10131759
Ge 8.32502909 10.21724494 17.97600314
Ge 6.28895541 13.89849530 7.08190433
Ge 6.14832846 13.77951328 17.82875310
Te -0.28347210 14.66580034 0.08512459
Te 8.58207915 7.75154877 0.44556917
Te 4.09486542 12.55089068 3.50611244
Te -0.06601445 2.66080652 7.18774103
Te -0.18766430 9.93413090 7.00255463
Te 2.15993492 1.15983199 8.77954497
Te 2.14963106 1.10831467 19.43663043
Te 0.02309369 5.18217161 9.00875390
Te -0.27329696 5.14642028 19.43461407
Te -2.42892060 8.69728193 9.12364148
Te -2.43180051 8.68342295 19.56556021
Te -4.31115243 12.40420400 9.07061905
Te -4.33079498 12.15942577 19.55562958
Te 6.39562636 1.42851622 9.06009859
Te 6.27574101 1.42791660 19.48189386
Te 4.10689236 4.94667030 9.21000511
Te 4.29163812 4.95265947 19.44549246
Te 1.98523974 8.89044241 9.08258196
Te 2.12072636 8.92838805 19.33317103
Te -0.32539822 12.47880748 9.14688919
Te -0.16489901 12.02433445 19.57771960
Te 10.44056925 1.80260634 8.96092825
Te 10.71936455 1.41219830 19.54862368
Te 8.62240955 5.39342677 9.06278428
Te 8.63546799 5.00048176 19.50039485
Te 6.37649146 8.83384771 9.22196444
Te 6.35617990 8.94667431 19.47966228
Te 4.30732963 12.60683650 9.05359925
Te 4.29506176 12.50051043 19.54590207
Te 15.03447030 1.59818154 9.14153634
Te 14.99052373 1.50164908 19.66229795
Te 12.92748232 5.27343785 9.09556796
Te 12.94297682 5.44757720 19.43945075
Te 10.34692765 9.07033788 9.18385992
Te 10.61122353 9.17627963 19.56849153
Te 8.54656663 12.78412681 9.18967228
Te 8.42471562 12.90786074 19.61570522
Te 0.01291498 2.57632188 1.88441092
Te -0.07829325 2.51656789 12.49468127
Te -2.20665573 6.27147569 1.96288672
Te -2.49894056 6.20620548 12.70536951
Te -4.48952221 9.94043985 2.01685416
Te -4.55640430 9.67746788 12.59279743
Te -6.68442938 13.59619355 2.01809338
Te -6.85852380 13.53826713 12.75021474
Te 4.26484161 2.44350194 1.92307545
Te 4.34994866 2.40787702 12.56782194
Te 2.28230242 6.20400785 1.69759713
Te 2.30828566 6.07146965 12.42557074
Te -0.13292951 10.16481817 2.07877138
Te -0.19356957 9.79064322 12.72400625
Te -2.51320961 13.68078817 1.88343621
Te -2.39132020 13.87451595 12.52675491
Te 8.29524332 2.75831866 2.06467936
Te 8.66490927 2.55041492 12.80829686
Te 6.17788487 6.24620287 2.02029719
Te 6.38015213 6.28647468 12.64064614
Te 4.16749268 10.11796120 1.89342797
Te 4.15122454 10.00591716 12.58489743
Te 2.03103215 13.78157517 1.81471861
Te 2.03282257 13.72387116 12.52777398
Te 12.66164187 3.08874844 2.09624489
Te 12.72872684 2.97575006 12.34588146
Te 10.78585748 6.55871064 1.99338136
Te 10.56045241 6.42857128 12.38843428
Te 8.51221750 10.45065787 2.29940804
Te 8.46992162 10.33806839 12.49321293
Te 6.49401931 14.17691554 1.71230623
Te 6.08875651 13.91212597 12.56359012
Te 0.05092283 -0.00421028 5.46605200
Te 17.06257176 0.41174099 15.91199072
Te 14.87567277 4.20582750 5.51634667
Te -2.16184840 3.73107989 15.99164368
Te -4.38860917 7.64326995 5.43342702
Te 12.57950579 7.96513625 16.05864721
Te 10.41479485 11.51145640 5.47988042
Te -6.64608333 11.14453367 15.68689279
Te 4.49189483 0.11363230 5.49521881
Te 4.24297267 0.27084672 16.17145653
Te 2.15228532 3.80093242 5.39240167
Te 2.25936222 3.86720344 16.10921189
Te -0.13504720 7.45754128 5.22863895
Te -0.13941820 7.43792319 16.07022570
Te -2.60050004 11.20011256 5.46053294
Te -2.27708028 11.49999760 16.05226773
Te -0.07546346 14.81792371 5.59249257
Te -0.20894700 14.75811176 15.90287387
Te 6.23110052 4.12468152 5.52240162
Te 6.24135026 3.94078939 16.29797354
Te 4.36517697 7.51209373 5.41845709
Te 4.47146618 7.49089130 15.94572410
Te 1.96066719 11.12899577 5.36839647
Te 1.95967175 11.45208390 16.14694566
Te 12.80326169 0.40789528 5.50037862
Te 4.16209867 15.01843854 16.18824126
Te 10.34421635 4.03673750 5.44601211
Te 10.77460030 3.89333231 16.02059665
Te 8.23167989 7.74534438 5.36957374
Te 8.45360935 7.86849866 16.17615123
Te 6.05278998 11.30663292 5.65911386
Te 6.11597105 11.25698150 16.11334466
192
Time=80000.00000008 pbc="T T T" Lattice="17.18749394 0.21142102 0.25698080 -8.92401816 14.85633760 -0.01814381 -0.28200360 -0.45391698 20.94407734" energy=-818.66654676 virial="-11.50972576 -2.16962781 2.59547804 -2.16962781 -0.10530817 16.44860397 2.59547804 16.44860397 2.75663910" stress="-0.00072335 -0.00040253 0.00048153 -0.00040253 0.00139249 0.00305168 0.00048153 0.00305168 0.00192346" Properties=species:S:1:pos:R:3
Ge 8.10648381 14.82050814 11.11014253
Ge 7.93656514 14.90015014 0.61625432
Ge -2.31908095 3.62394311 10.36517820
Ge -2.27970097 3.92311898 0.14099433
Ge -4.63754363 7.35860028 10.61246615
Ge 12.61344771 7.80410565 0.52962283
Ge -6.67018970 10.78623803 10.70132185
Ge 10.31198871 11.34952654 0.29066450
Ge 4.15657457 0.24045353 10.29740729
Ge 4.00347715 0.09572449 0.23735662
Ge 1.86254334 3.29340513 10.46854319
Ge 1.83834679 3.68482731 20.93994515
Ge -0.32039491 7.35849680 10.64513837
Ge -0.01686671 7.96514034 0.40796413
Ge -2.46014897 11.04592792 10.74582412
Ge -2.67010855 11.26509274 0.60428926
Ge -0.54832419 14.36952263 10.36465435
Ge 5.91275615 3.42067595 10.43116488
Ge 6.14590245 3.32659531 21.06750602
Ge 3.74001399 7.49476372 10.73323071
Ge 4.12025238 7.63235819 0.34231410
Ge 1.70662241 10.85404973 10.40751592
Ge 2.01194736 11.29080667 0.23980180
Ge 4.03119260 14.58457123 10.68203657
Ge 12.77875573 0.44975440 0.27038989
Ge 10.19446319 3.76766616 10.52523004
Ge 10.44775589 3.82411547 0.32566901
Ge 8.24761303 7.26709328 10.92653013
Ge 5.72111269 11.07721738 10.91389045
Ge 6.04757535 10.93570594 21.09085879
Ge 1.89578415 1.21155289 3.25680950
Ge 1.95909053 0.90657364 14.18093407
Ge -0.22884717 4.94062594 3.35475846
Ge -0.20508760 4.95683086 14.22205955
Ge -2.80162195 9.08030597 3.59505865
Ge -2.50615639 8.22767743 14.03893412
Ge -4.51460119 12.51369946 3.78191580
Ge -4.68431843 12.20950745 14.57321346
Ge 6.43989789 1.03190202 3.81819155
Ge 5.99274835 1.07819514 14.27133278
Ge 4.02585616 5.15363963 3.33628348
Ge 4.02313663 4.90899713 14.25158906
Ge 1.98548059 8.93246850 3.56171272
Ge 1.48256332 8.72945124 14.32568854
Ge -0.50683876 12.45409276 3.81820832
Ge -0.63128391 12.37495486 14.08689918
Ge 10.71673359 1.15685781 3.69092343
Ge 10.28577413 1.06766594 14.02755085
Ge 8.45728140 4.65693428 3.90005629
Ge 8.28109095 4.72916197 14.16568205
Ge 5.98885062 8.65838520 3.94923045
Ge 6.10205816 8.63366052 14.19693405
Ge 3.62686148 12.17435669 14.42213999
Ge 14.76552502 1.47973109 4.06023579
Ge 14.82168691 1.65928594 14.42886534
Ge 12.86847690 5.18480685 3.82602252
Ge 12.41977467 4.99810092 14.45391717
Ge 10.41624423 8.84300245 4.01670510
Ge 10.38539887 8.66260230 14.03330410
Ge 8.07948760 12.59662387 3.97689103
Ge 8.20038105 12.61041071 14.33004760
Ge -0.21907640 2.15552382 17.59099657
Ge -2.67908317 6.34331507 7.26640267
Ge -2.53444806 5.98627067 17.81745862
Ge -4.84896311 9.83801436 7.35193422
Ge -4.72924843 9.67910962 17.82160971
Ge -7.03951591 13.06602021 7.34290639
Ge -6.88519231 13.20951019 17.55942390
Ge 3.98893717 2.54440828 7.21407744
Ge 4.15951509 2.02745072 18.02873618
Ge 1.35487956 5.86252495 6.87254343
Ge 2.00768936 6.14219270 17.59504953
Ge -0.57230887 9.62062912 17.86613066
Ge -2.59093847 13.62843703 7.09001639
Ge -2.75470036 12.97706494 17.76248432
Ge 8.46778840 2.74140718 6.90393904
Ge 8.19540444 2.16238024 17.81800495
Ge 5.74793848 6.18599536 6.87734662
Ge 6.05583692 5.80081139 17.58288498
Ge 3.73987446 9.83109715 7.03116878
Ge 4.12635949 9.45279063 17.90155328
Ge 1.70385914 13.67853033 7.29488670
Ge 1.65377925 13.52466399 17.53091062
Ge 12.72550650 2.60126721 7.18102431
Ge 12.75023790 2.38696465 18.13806210
Ge 10.34074720 6.19059133 7.37132517
Ge 10.33234211 5.86099378 17.55395460
Ge 8.18867559 9.85387011 7.28607330
Ge 8.07714295 9.29320148 17.90045267
Ge 6.14708899 13.70881417 7.50484980
Ge 5.97987546 13.28556869 17.88106009
Te -0.12883746 14.87651473 0.26231816
Te 8.38797604 7.59519298 0.41787924
Te 3.92880163 12.54499470 4.14152485
Te -0.11293459 2.46641110 7.09334929
Te -0.41010894 9.77848276 6.93932027
Te 2.08843832 1.08146278 8.65693796
Te 1.98049963 0.91590015 19.38368414
Te -0.12909957 4.85301958 9.14643321
Te -0.38047835 4.44669702 19.26257664
Te -2.42275980 8.48686993 8.96884922
Te -2.62727477 8.24612629 19.16276025
Te -4.50416610 12.17654248 9.05769669
Te -4.79755184 11.95736814 19.40756952
Te 6.20803115 1.31427559 8.60862911
Te 6.13614099 0.72273334 19.37368839
Te 3.86495354 4.66566679 8.99167913
Te 4.34723881 4.53541752 19.37456778
Te 1.77742001 8.63031447 8.85852609
Te 1.60090391 8.48422287 19.36548587
Te -0.27203841 12.26742854 8.74852328
Te -0.46430766 11.99643318 19.51856315
Te 10.39516880 1.24086042 9.06171019
Te 10.58095687 0.97531326 19.59723466
Te 8.19710516 4.80721604 9.11632460
Te 8.32263502 4.54410606 19.52863097
Te 6.39538809 8.39221845 9.03544490
Te 5.89958083 8.35226664 19.60998440
Te 4.00676553 12.27584069 9.09782752
Te 3.97872855 11.87330808 19.36959843
Te 14.97636437 1.23613974 9.27090083
Te 14.81053129 0.71125765 19.68991445
Te 12.65545002 4.92190832 9.20800725
Te 12.34603586 4.77600192 19.73992826
Te 10.33912822 8.62892576 9.29234704
Te 10.36011752 8.39666967 19.55824013
Te 8.13880553 12.27937626 9.39762642
Te 8.10858707 12.26674294 19.37643062
Te -0.03611492 2.56649011 1.58508783
Te -0.04337731 2.12980464 12.48255992
Te -2.09080580 6.34525301 1.77762972
Te -2.26334522 5.77486939 12.33275071
Te -4.80965023 10.12721539 1.76129428
Te -4.50721124 9.83654965 12.52165530
Te -6.76785415 13.36285988 1.99802083
Te -6.91869843 13.24325275 12.42655858
Te 4.07292287 2.43023866 1.92279170
Te 4.08567097 2.08073607 12.52075654
Te 1.86885802 6.31969134 1.84531203
Te 1.89105361 5.72372369 12.26069164
Te -0.33102787 10.27208153 1.93359804
Te -0.29441709 9.49832305 12.50358382
Te -2.51281893 13.77614326 2.12735397
Te -2.69241607 13.35504132 12.56723416
Te 8.38338541 2.48558232 2.18395759
Te 8.38453552 2.30706326 12.50822086
Te 6.43974777 6.11131961 2.19076474
Te 6.00756009 6.09820183 12.60084409
Te 4.23116217 9.99960558 2.24593998
Te 3.94108714 9.67612361 12.52810592
Te 1.98111987 13.66078776 2.21840900
Te 1.52446973 13.46695147 12.38214196
Te 12.93378469 2.60523520 2.05404454
Te 12.82533285 2.27324758 12.76068894
Te 10.75241521 6.45964417 2.14272440
Te 10.47945617 6.01877960 12.60613325
Te 8.26959756 9.94286651 2.46240078
Te 8.35198129 9.85638159 12.58524516
Te 6.11576343 13.37423544 2.05895513
Te 5.89578977 13.36602261 12.65944787
Te 8.11718163 14.87964917 5.53727062
Te -8.95098835 14.45896896 15.93443092
Te 14.81541631 3.69502385 5.48681220
Te -2.26117978 3.27621935 16.07811668
Te 12.69242122 7.37878466 5.61537084
Te -4.53556888 6.99187001 16.13425442
Te -6.61284640 11.07877235 5.54279373
Te 10.21240982 11.04124703 16.44030523
Te -4.57249016 14.72243724 5.50410176
Te 4.32853504 -0.16202834 16.09855485
Te 2.10056706 3.56638877 5.21661488
Te 1.91102862 3.55015389 16.10881074
Te -0.53457433 7.34575891 5.15613141
Te -0.23917241 7.20160373 15.88539332
Te -2.63468638 11.27847114 5.26582414
Te -2.72924392 10.77935091 15.87389602
Te 8.73948563 0.12631192 5.59832903
Te 8.59594264 -0.21993472 15.97674966
Te 6.26766828 3.94110982 5.43330763
Te 6.21891372 3.52100444 15.88811700
Te 3.77729275 7.47279128 5.35798946
Te 3.98174793 7.08346360 15.97694844
Te 1.83394760 11.16743936 5.51525290
Te 1.49043611 11.01426365 15.92404204
Te 12.84223024 0.21675476 5.63270020
Te 3.85671861 14.59790873 16.11399295
Te 11.00775564 3.80975334 5.45948438
Te 10.62936222 3.47782193 16.06121692
Te 8.42765250 7.48327905 5.61780942
Te 8.29017219 7.14274796 16.08019741
Te 6.24068224 10.99294211 5.80168629
Te 5.72686953 10.74958409 15.94643675
192
Time=90000.00000003 pbc="T T T" Lattice="17.17950008 0.35860583 0.43609051 -8.87253612 14.61753038 0.02600896 -0.35006062 -0.26138246 21.12735883" energy=-818.78064954 virial="-10.37306671 -6.70376228 1.87262722 -6.70376228 -4.69507086 2.01228849 1.87262722 2.01228849 -11.41069521" stress="-0.00051367 -0.00124666 0.00034824 -0.00124666 0.00054223 0.00037421 0.00034824 0.00037421 -0.00070664" Properties=species:S:1:pos:R:3
Ge 16.64120555 0.23393404 10.90401152
Ge 7.93570391 14.66815918 21.46772800
Ge -2.36617503 3.61363688 10.75056004
Ge -1.91994084 3.65844569 0.22192801
Ge 12.47007801 7.61806024 11.06925770
Ge -4.23324695 7.08758693 0.38657670
Ge -6.67297051 10.85866202 11.21884797
Ge 10.59419215 11.13144286 0.54576973
Ge 3.72390603 0.16194239 10.68953243
Ge 4.32403999 0.28996543 0.60023914
Ge 1.79081692 3.93454502 11.13030205
Ge 2.07852731 3.60065107 0.34687144
Ge -0.17460322 7.27621089 10.60596291
Ge -0.08405871 7.76777321 0.29537282
Ge -2.70722159 10.75874116 10.97402064
Ge -2.76939018 10.85629077 21.12317095
Ge 8.28329048 0.07430093 10.62762402
Ge 6.20658231 3.39212633 11.04146772
Ge 6.26602580 3.81320345 0.43245017
Ge 4.06367946 7.15951437 10.94846264
Ge 3.84285344 7.66929029 0.42190609
Ge 1.89681178 11.13015446 10.64938230
Ge 1.86990326 11.16313622 0.50919220
Ge 3.54922560 14.63118579 10.87084602
Ge 13.00415117 0.56245073 0.59829179
Ge 10.39248501 3.85300436 11.19328684
Ge 10.79029162 3.93273711 0.87726159
Ge 8.66173048 7.06261809 11.14342392
Ge 6.33102036 11.45569672 11.00580653
Ge 5.84395645 11.40467241 0.60388912
Ge 2.06224208 1.30843584 3.69177492
Ge 1.68174708 1.26452092 14.11061493
Ge -0.11072946 5.05713903 3.88830323
Ge -0.49835389 4.89544737 14.36851860
Ge -2.21129789 8.49383424 3.75994797
Ge -2.46140842 8.44436275 14.48044363
Ge -4.59747270 11.99533128 3.92441541
Ge -4.55913498 12.24550648 14.40546039
Ge 6.42576388 1.14607536 3.91527864
Ge 6.14957986 1.12507720 14.35248755
Ge 3.95314578 5.07814261 3.96541364
Ge 3.75177014 5.21504088 14.11435801
Ge 1.75763053 8.43843775 3.93966463
Ge 1.57100255 8.84522193 14.18746475
Ge -0.13979580 12.20036919 3.88134140
Ge -0.75082365 12.30268523 14.56059715
Ge 10.49251936 1.32373015 3.98007442
Ge 10.44844387 0.93530890 14.67442655
Ge 8.52622643 5.01635799 3.63109553
Ge 7.95025373 4.96739975 14.54438588
Ge 6.32111069 8.80711127 4.01167213
Ge 6.02256925 8.48319539 14.65829277
Ge 3.62602820 12.14755567 14.60698694
Ge 14.95457050 1.65112692 4.29319676
Ge 14.79982959 1.31532503 14.80966189
Ge 12.84105063 5.22446553 4.13806338
Ge 12.52063705 5.05748283 14.78970783
Ge 10.54114150 8.87217871 3.74478719
Ge 10.07305463 8.47285166 14.62980239
Ge 8.16436040 12.62028559 4.15975676
Ge 8.07829542 12.29991821 14.40827361
Ge -0.12885558 2.36528070 17.80524341
Ge -2.70786613 6.10984925 7.14893441
Ge -2.60774893 5.85734010 17.58498813
Ge -4.65520785 9.68822834 7.30754987
Ge -4.84141054 9.66765636 18.10056423
Ge -6.67735919 13.44535766 7.15977702
Ge -7.16638946 13.40332013 17.82548866
Ge 3.98855028 2.30932957 7.22632062
Ge 4.18393345 2.33991094 18.13246890
Ge 1.94227935 5.82826114 7.39758516
Ge 1.63988374 5.81314028 17.86191426
Ge -0.59857034 9.83006804 17.96942950
Ge -2.63060684 13.10920454 7.23620918
Ge -2.99075771 13.34985710 17.97070752
Ge 8.41930004 2.63969393 7.17725905
Ge 8.22596731 2.53385089 18.29031052
Ge 6.30771737 6.34041402 7.57309766
Ge 5.98555279 6.20094160 17.92077794
Ge 4.11024650 9.96381394 7.52568944
Ge 3.67830214 9.72272922 17.94019110
Ge 1.68876566 13.41487559 7.34673092
Ge 1.41407475 13.33665705 17.95618181
Ge 12.59160184 2.79605309 7.47813182
Ge 12.17753940 2.54187705 18.31812263
Ge 10.53061117 6.38246227 7.58092204
Ge 10.31587649 6.23754733 18.20233880
Ge 8.30498051 9.84869918 7.44455662
Ge 7.97940243 9.89127616 18.14768535
Ge 5.90138952 13.65528870 7.31221274
Ge 5.91908342 13.41142761 18.32966442
Te -0.21015305 14.62680302 0.46125248
Te 8.23783436 7.72599358 0.46486691
Te 3.76914116 12.38406752 3.94001632
Te -0.42374833 2.36727002 7.34748544
Te -0.07857296 9.57044554 7.48318180
Te 1.89656225 1.23924782 9.04629783
Te 1.93810420 1.07254033 19.69363504
Te -0.18502740 4.91204375 9.11340790
Te -0.63573706 4.78487723 19.70395864
Te -2.41742641 8.50674124 9.12558211
Te -2.65028395 8.18652432 19.59531818
Te -4.74926214 11.97628530 8.90763974
Te -4.84176031 12.15002815 19.73508552
Te 6.39230858 1.56703695 9.10145728
Te 6.13622025 1.20729868 19.77572686
Te 4.28510178 4.66273094 9.37516854
Te 3.94857679 4.57457406 19.76123810
Te 2.05900945 8.72018113 9.36310917
Te 1.76344737 8.46659509 19.67774478
Te -0.47087603 12.09819321 9.08961194
Te -0.58492572 12.10739671 19.43372132
Te 10.57524219 1.42358783 9.29769233
Te 10.36422593 1.12119812 19.88369897
Te 8.13694580 5.07391234 9.20287868
Te 8.30454222 4.84117824 20.08968680
Te 6.32942230 8.71354665 9.28315231
Te 5.64565337 8.52737800 19.33440154
Te 4.20260798 12.39650480 9.15681992
Te 3.69993263 12.18704304 19.68000299
Te 14.75295520 1.53230129 9.42734877
Te 14.80168752 1.21533563 19.70299527
Te 12.68305946 5.09435680 9.30022915
Te 12.51603252 4.81091135 20.06257203
Te 10.44947406 8.64611468 9.47297929
Te 10.51581754 8.57906527 20.14087055
Te 8.50224029 12.38188667 9.62472867
Te 8.23334392 12.13515256 20.04398912
Te -0.03651991 2.26278716 1.70062236
Te -0.33672830 2.44559280 12.30071622
Te -2.19880177 6.09969649 2.00095885
Te -2.53399437 5.92010602 12.34823641
Te -4.47594035 9.77988894 1.91669753
Te -4.73378686 9.63664935 12.54762062
Te -6.67325388 13.53671461 2.24562141
Te -6.64396523 13.15528703 12.67441204
Te 4.20584194 2.56428379 2.10797559
Te 4.15133187 2.23284639 12.65522256
Te 1.88234998 6.39829989 1.93130332
Te 1.80923861 6.29153361 12.60487314
Te -0.34072544 9.90345105 2.15866137
Te -0.54095609 9.79531019 12.62085880
Te -2.34448981 13.34389353 2.14624839
Te -2.56313984 13.34253412 12.69140807
Te 8.54558744 2.62324967 2.27609214
Te 8.40212397 2.11286403 12.77855122
Te 6.23912438 6.27057461 2.06321954
Te 6.12214864 6.10924870 12.69886893
Te 3.89119420 9.91576345 2.13752570
Te 4.08263363 9.74382832 12.85991204
Te 1.86547327 13.59728880 2.15840857
Te 1.48362387 13.57544994 12.90690956
Te 12.96289984 2.73664797 2.43457640
Te 12.44375797 2.61809344 12.79665695
Te 10.90215776 6.37494884 2.53498218
Te 10.45418003 6.19310188 13.03111450
Te 8.40052402 10.13230421 2.37065080
Te 8.27172636 9.77468860 12.92643252
Te 6.31414448 13.61018691 2.13019604
Te 6.07465974 13.48816142 12.86462899
Te 17.01765708 0.30535952 5.87965348
Te -0.13357184 -0.04452068 15.93430406
Te 14.64069815 3.85332881 5.88860510
Te 14.62275701 3.71257180 16.37615383
Te -4.48750741 7.36841705 5.43796556
Te 12.45140233 7.43777814 16.31157614
Te 10.31251509 11.26983283 6.10697114
Te 10.27640244 11.06995409 16.68476756
Te 4.27220229 0.16790751 5.54513423
Te 3.87669803 0.02970826 16.12344393
Te 2.00880886 3.58604133 5.53274255
Te 1.67481072 3.48740802 15.92374562
Te -0.20109197 7.22170833 5.54146558
Te -0.26276336 7.03178141 16.15021288
Te -2.51305677 10.96787580 5.52042856
Te -2.51851270 10.65038656 16.11219456
Te -0.22856005 14.67787629 5.63993690
Te -0.58730692 14.49837902 16.33673168
Te 6.51790720 4.14246253 5.44274859
Te 5.75802718 3.53402609 16.11551620
Te 3.99214949 7.40909688 5.38984273