192
Time=60000.00000005 pbc="T T T" Lattice="17.42655277 0.15159923 0.33535478 -8.76862527 14.84292132 -0.66929948 -0.20948266 0.73450670 20.97595418" energy=-817.27076542 virial="-21.76325880 5.82078646 -17.21355169 5.82078646 -16.11957943 0.93953665 -17.21355169 0.93953665 -9.85236851" stress="-0.00256217 0.00106627 -0.00315322 0.00106627 -0.00152835 0.00017211 -0.00315322 0.00017211 -0.00038030" Properties=species:S:1:pos:R:3
Ge -8.47423903 15.03767297 10.16670196
Ge 8.33609446 14.79385752 0.08231282
Ge -1.96266450 4.13283153 10.51130907
Ge -2.03911734 3.68627800 0.18375803
Ge -4.21437614 7.54600252 10.26193434
Ge 13.03304113 7.36437146 0.24782121
Ge -6.57600395 11.46450161 9.81496632
Ge 10.75280678 11.19427657 0.54579158
Ge 4.11722945 0.55415260 10.82465715
Ge 4.55723606 0.07987912 0.25847777
Ge 2.17986045 4.36550837 10.31931791
Ge 2.06734146 3.72361297 0.10909466
Ge 0.16751357 7.72619530 10.13637031
Ge 0.02946788 7.80313165 0.25727850
Ge -2.59463818 11.54883777 10.20042047
Ge -2.27035398 11.24880088 -0.01907039
Ge -0.53066538 15.19433580 10.20221469
Ge 6.36830225 4.19022176 10.66388659
Ge 6.27264464 3.50118820 0.10641147
Ge 4.43791013 8.28639909 10.48049520
Ge 4.05474009 7.26487335 0.06711799
Ge 1.88567346 11.73400042 10.24144134
Ge 2.16527554 10.88714934 0.10593730
Ge 13.06956849 0.63262556 10.58927387
Ge 12.72048240 0.40209399 0.59364311
Ge 10.32568621 3.94999936 10.71360574
Ge 10.57267957 4.60476072 20.86415314
Ge 8.82677645 7.95245745 10.69494972
Ge 6.14369539 11.95156677 10.43201017
Ge 6.49569235 11.23696398 -0.19604722
Ge 2.11201494 1.36418652 3.76968910
Ge 1.85147141 1.92748862 14.05281720
Ge 0.08441873 4.80825076 3.83284107
Ge 0.18800704 5.46410333 13.86112926
Ge -1.74446709 8.88332396 3.42446255
Ge -2.39719871 9.37833954 13.92479979
Ge -3.99050758 12.37786985 3.19347603
Ge -4.52030237 12.73042979 13.90755303
Ge 6.32610520 1.36839998 3.49333060
Ge 6.11675251 1.49123439 14.10599241
Ge 4.48170990 4.99191593 3.86446461
Ge 4.18805106 5.85567480 14.27154927
Ge 2.25357398 9.01342771 3.37156158
Ge 1.57223052 8.95620223 13.71274926
Ge -0.13065816 12.74050582 3.45852499
Ge -0.31564729 12.77862489 13.70448656
Ge 10.48802777 1.52332646 3.76224836
Ge 10.75680861 1.83946029 14.74712125
Ge 8.67872152 5.17594859 3.39996801
Ge 8.50388283 5.47545227 14.34630051
Ge 6.40799653 9.31610090 3.69572447
Ge 6.14525316 9.35594775 13.95411920
Ge 3.89386055 12.91731364 13.64112269
Ge 14.90451663 1.66511049 4.14218910
Ge 15.00921663 1.80110394 14.31248908
Ge 13.16900056 5.34225612 3.94391449
Ge 12.89963196 5.29173902 14.15943310
Ge 10.85310767 8.71244240 3.52042869
Ge 10.59501795 9.45033663 14.20667080
Ge 8.74223624 12.49707363 3.23654526
Ge 8.68296555 12.96169461 13.92770787
Ge -0.28164637 2.91115569 17.56403941
Ge -2.30672470 6.46896183 6.97231876
Ge -2.40511739 6.66994699 17.23349471
Ge -4.36016975 10.42919115 6.85329826
Ge -4.69979279 10.46822346 17.55807485
Ge -7.03319925 14.00896445 6.22593745
Ge -6.70578981 14.07405908 17.17330691
Ge 4.38071191 2.41632812 7.10114236
Ge 4.21796331 3.11378541 17.75752046
Ge 2.70024393 6.81417707 7.15790177
Ge 2.18520176 6.81931720 17.70879372
Ge -0.40570270 10.41563230 17.49943902
Ge -2.39010466 13.93782414 6.53536868
Ge -2.53850924 14.09287633 17.33308477
Ge 8.72576953 3.05748940 7.30678527
Ge 8.36666083 3.03313144 17.80106592
Ge 6.75897282 6.90402797 7.10701119
Ge 6.46814818 7.04618070 17.50289230
Ge 4.16587193 10.33435923 6.87061390
Ge 4.36647230 10.76549790 17.66489538
Ge 1.87062289 14.12683002 6.83337018
Ge 1.87674690 14.17337704 17.03350890
Ge 13.00083273 2.63743309 7.41967401
Ge 12.93326642 3.22059334 17.85536193
Ge 11.05705195 6.67802693 6.99918332
Ge 10.47395244 6.85885466 17.65896490
Ge 8.83174603 10.43659029 6.87612359
Ge 8.36901079 10.54494194 17.32731911
Ge 6.01040581 14.03588763 6.68399342
Ge 5.98310386 14.09811685 17.65733773
Te -0.01130661 14.89924580 -0.24180360
Te 8.24824116 8.17091841 20.88870362
Te 3.99248212 12.42372459 3.33976598
Te -0.13085097 2.64931999 6.93256165
Te 0.09851050 10.28222085 6.99108592
Te 2.23778483 1.52086714 8.92136232
Te 2.15489300 1.79692373 19.04122313
Te 0.00882468 5.46238254 8.40262651
Te -0.22945918 5.40663600 19.11212658
Te -2.12896158 8.90846781 8.73987274
Te -2.60122777 9.34133342 18.90306258
Te -4.46890282 12.68205696 8.52661434
Te -4.60646440 12.92487485 18.94276293
Te 6.34584218 1.42869639 9.09919278
Te 6.13204930 1.93523641 19.41004933
Te 4.47326547 5.42661366 8.97113198
Te 4.24877941 5.62243400 19.12520380
Te 2.30579744 9.31772661 8.79985870
Te 1.59335951 9.38930396 19.29401520
Te -0.18083040 12.90680585 8.43095186
Te -0.20915512 13.08801133 18.94221309
Te 10.89756959 1.50235923 9.15993683
Te 10.73410171 2.07154608 19.49290285
Te 8.65340677 5.30802284 8.91286292
Te 8.49841621 5.63086374 19.23650191
Te 6.30668237 9.39674355 8.59286442
Te 6.36167666 9.48437780 19.19583907
Te 3.98811178 12.99274614 8.27739327
Te 4.09425051 13.04408192 19.10107997
Te 15.03368993 1.79110624 9.00199538
Te 15.25877273 2.11015561 19.42548110
Te 12.95418903 5.44991419 8.88189071
Te 12.88813883 5.80070301 19.24644730
Te 10.81741461 9.13939621 9.15889701
Te 10.80687369 9.25730505 19.32707369
Te 8.75043232 12.89477096 8.40264695
Te 8.46509329 13.23377744 19.12898059
Te 0.26063587 2.48089762 1.90537798
Te 0.10495737 3.00292030 11.89109900
Te -2.35552754 6.28734686 1.76184014
Te -2.16880155 6.58496005 11.84100466
Te -4.49484114 9.98606693 1.44035848
Te -4.60226371 10.38477217 11.72586850
Te -6.59345083 13.67647099 1.18445756
Te -6.65998443 13.96879836 11.86418113
Te 4.40026682 2.65348808 1.99929095
Te 4.19611017 2.89346883 12.36933837
Te 2.14821199 6.40623664 1.65970380
Te 2.11089532 6.63381958 12.25366847
Te 0.02952559 10.09719037 1.75800659
Te -0.10747961 10.46329819 11.93711673
Te -2.34294484 13.64350687 1.42710668
Te -2.36300116 13.97311890 11.97132604
Te 8.46522472 2.84327085 1.94848619
Te 8.59691298 2.69315007 12.56037318
Te 6.34225791 6.40426027 1.92013452
Te 6.36825320 6.74525144 12.46950395
Te 4.38514310 9.82998213 1.53340928
Te 4.23800019 10.48004006 12.15168825
Te 2.05647962 13.62492859 1.40565966
Te 1.88231274 14.01863358 12.02330279
Te 12.94999014 2.93215784 2.18020973
Te 13.04190929 3.00382727 12.76240497
Te 10.88869393 6.26053571 2.01869484
Te 10.45781791 6.51821005 12.56405714
Te 8.55797759 9.86455710 2.08946126
Te 8.38741932 10.55020954 12.22562814
Te 6.47017690 13.73424794 1.50390400
Te 6.10626267 14.07847591 12.04079656
Te 8.56698061 15.13128601 4.79460670
Te -0.06424891 0.67902803 15.68941273
Te -2.19089874 3.89743701 5.20461933
Te -1.95094708 4.43254374 15.36497585
Te -4.43877613 7.79105800 5.06414949
Te 12.87488884 8.06449222 15.55862116
Te 10.85813429 11.36093692 5.13612394
Te 10.53795725 11.81153972 15.59043147
Te 4.40052421 0.37767406 5.22216081
Te -4.48844588 15.39922603 15.32225658
Te 2.19770147 4.10717653 5.42964579
Te 2.21577073 4.25600959 15.69098037
Te 0.11711497 7.74326568 5.18533777
Te -0.23120641 7.86326283 15.60227664
Te -2.11134759 11.38584902 5.19183671
Te -2.38098813 11.61621219 15.42873755
Te 8.59382283 0.32324489 5.36343080
Te -0.16662056 15.44097562 15.38025362
Te 6.62001785 4.17265740 5.50547109
Te 6.39541738 4.18027924 15.91112058
Te 4.37767765 7.76839700 5.07159652
Te 3.75796719 8.18523779 15.86695224
Te 1.96880691 11.40826000 5.01718295
Te 1.77827919 11.79459382 15.45076764
Te 12.79493943 0.53919344 5.72154398
Te 4.08623341 15.38859353 15.45066862
Te 10.81207234 4.01623443 5.47054883
Te 10.79682549 4.39784396 16.08762636
Te 8.78750430 7.87415595 5.44885353
Te 8.54061166 8.10831536 15.85669575
Te 6.76226790 11.56400531 5.16937176
Te 6.29930572 11.82560437 15.57118364
192
Time=70000.00000007 pbc="T T T" Lattice="17.08585626 0.17170509 0.12241420 -8.73689346 14.82813621 -0.68393481 -0.41423992 0.95851217 20.96051976" energy=-819.23040098 virial="4.67144273 -0.57547188 7.37564230 -0.57547188 -12.93134627 -7.75515697 7.37564230 -7.75515697 -2.99816931" stress="0.00232526 -0.00010750 0.00137778 -0.00010750 -0.00096297 -0.00144868 0.00137778 -0.00144868 0.00089256" Properties=species:S:1:pos:R:3
Ge -0.19326189 0.50462957 10.53300407
Ge 8.16362213 15.00349133 -0.33180420
Ge -2.16443889 4.15801058 10.37684662
Ge 14.49883410 3.59375215 0.16537242
Ge -4.50078038 8.22765926 10.24630806
Ge -4.67096926 8.42530760 20.56991332
Ge -6.86473965 11.81372280 9.90114749
Ge -6.74296424 11.49579895 -0.13948098
Ge 4.07916965 0.59707060 10.50063402
Ge 4.07358078 0.08006770 0.32389568
Ge 2.09873740 4.22942419 10.28785293
Ge 1.97036665 3.67848095 0.36065427
Ge -0.11463568 7.93828009 10.27965800
Ge -0.30301432 7.76903620 0.35959831
Ge -2.31351973 11.69897507 10.00736492
Ge -2.29360086 11.32150256 -0.21821655
Ge -0.56271814 15.05784696 9.67632294
Ge 6.00772219 4.00881561 10.41325530
Ge 6.24616226 3.66326811 -0.01097116
Ge 4.23091435 8.26782189 10.25806209
Ge 4.13480339 7.58476698 -0.04564230
Ge 1.94126984 11.88793657 10.31218552
Ge 1.75761584 11.36016004 -0.25743242
Ge 12.67830449 1.07289784 10.66920693
Ge 12.76394143 0.17168738 0.58571928
Ge 10.42556162 4.47120292 10.34095004
Ge 10.61487626 3.80608869 0.21089289
Ge 8.45294049 8.14392737 10.55556842
Ge 5.91825508 11.89511988 9.95331122
Ge 6.30848937 11.21255492 -0.10853510
Ge 2.15870258 1.65051467 3.75716399
Ge 1.84125693 1.58124680 14.08237515
Ge -0.07342944 5.28421736 3.60926983
Ge -0.13050278 5.67535071 13.84756496
Ge -2.44394760 8.72743298 3.11169225
Ge -2.67507116 9.28363921 13.66933243
Ge -4.22468578 12.34781951 3.11689919
Ge -4.75991612 13.30980262 13.44275965
Ge 6.28700211 1.40613799 3.66619863
Ge 5.90342568 1.80278701 14.27244176
Ge 3.88198128 5.30840059 3.44182410
Ge 4.18003539 5.82414415 14.25382751
Ge 2.00915255 9.22568527 3.26807515
Ge 1.47299082 9.12391901 13.82405358
Ge -0.09469030 12.80120234 3.12500931
Ge -0.49927298 13.21765657 13.63485382
Ge 10.60801410 1.50542432 3.74577650
Ge 10.25368402 2.21316946 14.09941482
Ge 8.52251908 5.27158824 3.35956344
Ge 8.02871827 5.63555425 13.89731635
Ge 5.85750225 8.88907396 3.47344515
Ge 5.90208446 9.61098048 13.53906406
Ge 3.50760418 13.57394456 13.83296310
Ge 14.65879322 1.44413362 3.85893591
Ge 14.73559052 1.87112227 14.17052697
Ge 12.80571633 5.18403176 3.83522121
Ge 12.36271397 5.73080546 13.93951788
Ge 10.58816093 9.10583308 3.31738833
Ge 10.37923076 9.68110407 13.83490142
Ge 8.38360926 12.10333850 3.23080101
Ge 7.93627344 13.02845663 13.61584731
Ge -0.47013061 3.57211616 17.69616812
Ge -2.59476298 6.56656726 6.88221215
Ge -2.73368690 7.00162880 17.48066227
Ge -4.51406197 10.19234873 7.00078077
Ge -4.77748469 10.60196085 16.89929626
Ge -6.90364642 13.89560095 6.30659316
Ge -7.12300555 14.46421249 17.21316478
Ge 4.15959072 2.71160910 6.73162556
Ge 3.75525028 3.28219493 17.94284437
Ge 2.05857653 6.36079744 7.12526461
Ge 1.68943607 6.96143119 17.38498166
Ge -0.62159751 11.02137422 17.17828474
Ge -2.45368912 13.91905387 6.29933215
Ge -2.70417770 14.13652955 16.99177997
Ge 8.35798778 2.97984075 6.98401419
Ge 8.43906539 3.46930303 17.60437008
Ge 6.21802191 6.76839630 6.71938083
Ge 5.90707430 6.71270615 17.49804436
Ge 3.94417703 10.27436517 6.73785803
Ge 3.70976012 10.63802475 17.56942285
Ge 1.36975791 14.09679155 6.72283561
Ge 1.77872312 14.53805983 17.21980329
Ge 12.57018780 2.76927302 7.00768022
Ge 12.33437923 3.37740919 17.62759760
Ge 10.17995825 6.52548408 7.12297002
Ge 10.04298552 7.36943266 17.49385230
Ge 8.30413498 10.36266207 6.77343953
Ge 8.02003863 10.74786199 17.21017351
Ge 5.89090888 14.04157549 6.58357241
Ge 5.44608236 14.45472819 17.23729682
Te 8.48135752 0.24515443 0.21890572
Te 8.40966555 7.59618159 -0.17456142
Te 3.90297575 12.71711171 3.17595487
Te -0.18559858 2.70093983 6.94551324
Te -0.16469756 10.11158081 6.57785668
Te 2.18670679 1.43585304 8.61702577
Te 1.83402132 2.07392469 19.45137708
Te -0.15367458 5.55151727 8.76224516
Te -0.22246954 5.84475255 19.46527096
Te -2.23015413 8.99954320 8.50786763
Te -2.64950294 9.49438849 18.88123737
Te -4.69231997 12.58058125 8.36756253
Te -4.73221053 13.09945596 18.79896950
Te 6.19835246 1.47647171 8.77412383
Te 5.83702267 2.15797005 19.32263337
Te 4.05109187 5.35621842 8.68138365
Te 3.85699281 5.83820157 19.17744691
Te 2.12524459 9.32553235 8.44567081
Te 1.70916462 9.46074014 18.86962656
Te -0.36311965 12.67695544 8.21187038
Te -0.35844407 13.40120793 18.91689160
Te 10.42394427 1.66972872 8.86653043
Te 10.40321800 2.40177153 19.37864088
Te 8.18936600 5.34253266 8.64437998
Te 8.13492591 5.71129293 19.18159606
Te 6.25735787 9.15730256 8.66412147
Te 6.07402181 9.57692663 18.96213027
Te 3.97568659 12.94511952 8.35043031
Te 3.74855645 13.33243322 18.95696345
Te 14.78567894 1.83944488 9.01246461
Te 14.50701692 2.21607236 19.44714918
Te 12.78913427 5.49807612 8.86772772
Te 12.27539867 6.00876850 19.24778039
Te 10.32259163 9.10453122 8.50044937
Te 10.38273245 9.89861712 19.06827181
Te 8.02206040 12.93673290 8.36077787
Te 8.09699464 13.44251825 19.03827789
Te -0.09080261 2.47730377 1.86563123
Te -0.10022972 2.97225436 12.33697141
Te -2.30004135 6.06107785 1.59662576
Te -2.37678847 6.95123605 12.06796542
Te -4.54944398 9.95820744 1.32634701
Te -4.65031200 10.55453999 11.92780366
Te -6.61088085 13.60620233 1.41449313
Te -6.95347200 14.20068947 11.82197637
Te 4.38657135 2.58337980 2.05389852
Te 3.92044477 3.07273724 12.43206260
Te 2.04350934 6.30276338 1.60500946
Te 2.04369663 6.79970731 12.09074238
Te -0.11247371 10.13122192 1.63567812
Te -0.31643001 10.88252907 12.05484411
Te -2.41347194 13.55328243 1.42464805
Te -2.66657350 14.39029417 11.58287975
Te 8.48959887 2.90314929 1.97691185
Te 8.39653318 2.98998646 12.27964449
Te 6.15390720 6.17470140 1.61376451
Te 6.01241564 6.85038090 12.24903763
Te 4.07694139 9.87307856 1.48035486
Te 3.83598845 10.91095502 11.90974555
Te 1.75678384 13.98055354 1.27694915
Te 1.95395078 14.37109442 11.65058790
Te 12.70213587 2.57074963 2.22055461
Te 12.44782108 3.40750115 12.51206596
Te 10.60982937 6.36417969 1.89768029
Te 10.56286541 7.14464712 12.10752445
Te 8.33868961 9.83183668 1.68100798
Te 8.21563159 10.50064657 11.87300537
Te 6.29538614 13.70870073 1.28967595
Te 6.15261683 14.42347641 11.78288618
Te 8.24685461 14.90279511 4.66918504
Te -8.97285537 15.44977820 15.30094908
Te -2.09970220 4.15315178 5.34115258
Te -2.14335438 4.70287693 15.65085211
Te 12.55405256 7.80972013 5.15060227
Te -4.62584882 8.14131626 15.67113277
Te 10.30808458 11.24906645 5.26397617
Te -6.81260699 12.01594656 15.14798325
Te -4.72697036 15.03988849 4.65491965
Te 4.01612090 0.91576523 15.89210525
Te 1.92715593 4.00724611 5.16443106
Te 1.65910317 4.41890981 15.71308367
Te -0.17552791 7.69117396 4.93335223
Te -0.63659798 8.26810647 15.50553866
Te -2.47856763 11.14389910 4.90184554
Te -2.71908571 11.93644061 14.99729496
Te 8.44475261 0.37271301 5.41952014
Te 8.38103084 0.82236600 16.00866977
Te 6.30230148 3.77164609 5.21718937
Te 6.24876063 4.51854073 15.69279433
Te 3.90919817 7.74277065 5.17975284
Te 3.86333607 8.30385553 15.53745431
Te 1.97399706 11.38836262 4.90460529
Te 1.55870672 12.12350697 15.39079975
Te 3.94810261 15.16609600 4.90341042
Te 12.66692300 0.88873072 15.99302041
Te 10.44226751 4.09233396 5.62867140
Te 10.24225706 4.62942537 15.75264495
Te 8.35127598 7.84529388 5.12008216
Te 8.16279364 8.37329031 15.46128893
Te 6.12800537 11.36289053 4.94586552
Te 5.86326871 11.89375001 15.42930865
192
Time=80000.00000008 pbc="T T T" Lattice="17.37203523 -0.04772524 0.17701088 -8.69800375 14.93612764 -0.41590080 -0.25190825 0.63992753 20.98355029" energy=-818.63940281 virial="-22.65529167 -0.60514728 3.66015049 -0.60514728 -12.68469739 -1.52301026 3.66015049 -1.52301026 -12.95320864" stress="-0.00273446 -0.00011121 0.00067266 -0.00011121 -0.00090206 -0.00027990 0.00067266 -0.00027990 -0.00095141" Properties=species:S:1:pos:R:3
Ge -8.72913989 15.25520442 10.07455987
Ge 17.21816674 0.05964143 0.53970111
Ge 14.97960399 4.08069517 10.43167366
Ge -2.00298021 3.50532284 -0.08880376
Ge -4.26990806 7.81617434 10.55211537
Ge 12.79983692 7.41281601 0.25906532
Ge 10.50126598 11.40368952 10.56982666
Ge -6.75287809 11.60758976 -0.11165642
Ge 3.96111232 0.51482447 10.43945649
Ge -4.45854071 14.85461442 -0.01677096
Ge 2.05561465 4.28957150 10.61405617
Ge 2.22196314 3.67488957 0.22712555
Ge -0.01092083 7.63511159 10.40075314
Ge -0.26980410 7.65998315 0.19570124
Ge -2.26216636 11.75597228 10.06761047
Ge -2.13492841 10.76586454 0.02006094
Ge 8.28165365 0.36317464 10.58941102
Ge 6.28716701 4.55366608 10.72397035
Ge 6.52086195 3.54482307 0.15048180
Ge 4.13088668 7.97350644 10.36414804
Ge 3.99583683 7.58543894 0.15432697
Ge 2.20804827 11.59970578 10.39559206
Ge 2.07353020 11.35837986 -0.14788270
Ge 4.85873378 15.03298600 10.26727091
Ge 4.48690562 14.44822204 0.06974055
Ge 10.66050260 4.11179700 10.59256992
Ge 10.99839153 3.90106757 0.27791427
Ge 8.51831162 7.89600204 10.56764539
Ge 6.15583473 11.46956188 10.31355544
Ge 6.49766487 11.08820235 0.02914025
Ge 2.07102578 1.60083081 3.71818222
Ge 1.70825379 1.70616134 14.22686813
Ge -0.26070416 5.31434867 3.51190123
Ge -0.36574544 5.14367621 14.07780898
Ge -2.46303765 8.94090444 3.40903187
Ge -2.50730228 9.02521583 13.74416337
Ge -4.11545336 12.23822719 3.21120605
Ge -4.40514037 12.50656360 14.10834075
Ge 6.41554047 0.79006654 3.68265843
Ge 6.65146234 1.38158483 14.18621377
Ge 4.34438803 4.83280071 3.59792207
Ge 4.02722277 5.22226971 14.28061070
Ge 1.91408978 8.65838642 3.41858184
Ge 1.71553212 8.92805834 14.12926408
Ge -0.44133956 12.51494763 3.23874873
Ge -0.24617395 13.03749490 13.78812109
Ge 10.58291309 0.96894462 3.56698590
Ge 11.05799294 1.55121303 14.22526330
Ge 8.64699648 4.70785439 3.35648293
Ge 8.25169578 5.38446575 14.20752094
Ge 6.36338963 8.63865324 3.46801289
Ge 6.33498993 9.35013709 13.96096045
Ge 4.01412159 13.17145208 13.82912077
Ge 15.13399243 1.25441046 4.02629797
Ge 15.10573103 1.62054092 14.13274100
Ge 12.97275495 4.80221500 3.59038557
Ge 12.85255861 5.52821677 14.56732414
Ge 10.52572862 8.57288886 3.53085678
Ge 10.61655323 8.90250700 13.93726697
Ge 8.50428092 12.60923505 3.42573318
Ge 8.69977059 12.75143996 14.31656368
Ge -0.05276219 3.05226090 17.80572312
Ge -2.35607114 6.52149109 7.06120668
Ge -2.18512754 6.63601304 17.34635244
Ge -4.45203934 9.90516291 6.88836686
Ge -4.75642058 10.54822367 17.86674976
Ge -6.74124367 13.48939232 6.55277084
Ge -6.47851865 14.40352314 17.50327950
Ge 4.14748282 2.73225329 7.22175028
Ge 4.25872639 2.87032730 17.55884418
Ge 1.63441403 6.66796977 7.06968242
Ge 2.01197577 6.85243180 17.61271058
Ge -0.13722485 10.59043348 17.46225864
Ge -2.35108216 14.11755932 6.86255545
Ge -2.20566884 14.17512581 17.18909440
Ge 8.85201679 2.16265373 6.99749079
Ge 8.50528622 3.12244646 17.84298384
Ge 6.11305439 6.41846776 7.07135887
Ge 6.01774613 6.93655139 17.80469301
Ge 4.39566953 9.93527726 7.06887506
Ge 4.13044533 10.43728018 17.69736371
Ge 1.89186174 13.59097234 6.69918437
Ge 2.15523133 14.16442940 17.41457729
Ge 12.88547492 2.64122487 7.28996772
Ge 12.53792770 2.85713134 17.87921624
Ge 10.72380114 6.25306174 6.87925975
Ge 10.66002800 6.74974961 17.50912944
Ge 8.77810482 10.02289669 6.89371695
Ge 8.54027519 10.43071083 17.29623364
Ge 6.40346231 13.52455360 6.72333939
Ge 6.32720222 14.09360732 17.90557920
Te 0.01526681 14.69587545 -0.10351262
Te 8.45661778 7.59870585 0.32994006
Te 4.14679210 12.25204229 3.49869580
Te -0.03514195 2.73836513 6.87988908
Te -0.02907415 10.24683032 6.99944660
Te 2.05802941 1.74772057 8.85316216
Te 1.95421362 1.96543070 19.43989221
Te 0.00860057 5.25087387 8.97939705
Te -0.20793415 5.71144326 19.22766517
Te -2.41878452 9.09941690 8.79991722
Te -2.35845677 9.30843258 19.00424888
Te -4.39006700 12.74277118 8.41305706
Te -4.55163975 13.13889285 19.25420553
Te 6.44690848 1.55688396 8.66560375
Te 6.19473865 1.82702417 19.15475568
Te 4.16897824 5.31234675 8.76093977
Te 4.18115394 5.42672013 19.05560498
Te 2.37203748 9.01472124 8.88113954
Te 1.82504620 9.29556824 19.25962123
Te 0.05269283 12.62617299 8.62338524
Te -0.39237800 13.00414714 18.92761036
Te 10.73197067 1.39086218 8.92034050
Te 10.41129648 1.60892187 19.39996963
Te 8.58918173 5.40298901 8.81007741
Te 8.37139654 5.64820623 19.30286661
Te 6.56597297 9.08838772 8.93836837
Te 6.26527794 9.37253762 19.31070490
Te 4.22818504 12.67348599 8.65503700
Te 4.17679651 13.03795886 19.23307714
Te 15.04485234 1.52866608 8.97745854
Te 15.00448634 1.65349578 19.58437309
Te 12.86755389 5.36464558 8.88344089
Te 12.92837377 5.61978990 19.31979522
Te 10.75206539 8.98078766 8.84597732
Te 10.76029757 9.43790645 19.56215936
Te 8.58195025 12.80129146 8.78897117
Te 8.42270449 12.94052907 19.29069201
Te -0.19240785 2.46262915 1.81192863
Te -0.18068815 2.90059890 12.42032094
Te -2.29206606 5.97738492 1.54137925
Te -2.19218578 6.54078277 12.10802998
Te -4.34057121 9.86794083 1.54712259
Te -4.40811752 10.68067725 12.06993942
Te -6.52463679 13.74839432 1.67880677
Te -6.69296809 14.13460788 11.75762342
Te 4.16238927 2.40416409 1.86427122
Te 4.07165597 2.91438758 12.49863299
Te 1.98445392 6.45837955 1.66367852
Te 1.96649273 6.60650939 12.70975276
Te 0.00630570 9.96487417 1.78159906
Te 0.18196940 10.60119636 12.31950538
Te -2.24868371 13.55208147 1.43251809
Te -2.34937557 14.06611880 12.18895926
Te 8.61269107 2.42256178 1.87049368
Te 8.37484333 2.79232719 12.11301778
Te 6.32068202 6.02063362 1.50695157
Te 6.35235576 6.58443543 12.44939669
Te 4.29988687 9.83640062 1.78526954
Te 4.36308377 10.36545874 12.07605537
Te 2.19729794 13.61947937 1.54205634
Te 2.13729433 14.23194110 11.91799715
Te 12.89138558 2.50765136 1.93380599
Te 13.04421079 3.05562660 12.72573880
Te 10.80738149 6.24608434 1.93220264
Te 10.76818491 6.63093446 12.31815430
Te 8.62179815 10.36571680 1.75945437
Te 8.62077544 10.33616417 12.24789427
Te 6.45336729 13.66378925 1.82075038
Te 6.42897321 13.81647237 12.25521466
Te 17.26923301 0.12152820 5.55331439
Te 8.35910638 15.31085577 15.80364767
Te -2.32609779 4.14591828 5.29476930
Te -2.32735643 4.18385917 16.03314486
Te 12.66220197 7.69780655 5.16240761
Te -4.42429362 8.12473556 15.66226899
Te 10.61423454 11.14834294 5.07693852
Te -6.64650539 11.82088917 15.82553091
Te -4.42189509 14.92425766 5.00594073
Te -4.55424206 15.32146655 15.56784282
Te 2.19655238 3.85638764 5.25249698
Te 1.87289992 4.12226846 15.94728636
Te -0.23422387 7.45409239 5.19557679
Te -0.25179922 8.05000490 15.66150653
Te -2.30116474 11.27868528 5.15858074
Te -2.25550320 11.61384508 15.45720529
Te -0.02796251 14.88817343 4.87307283
Te 8.53410877 0.57216960 16.10550852
Te 6.47147527 4.10059031 5.31633917
Te 6.30559293 4.19856753 15.91146014
Te 4.46858861 7.74682555 5.21065896
Te 4.40687201 8.09894385 15.82779940
Te 2.19095410 11.17148338 5.24220352
Te 2.07463422 11.56326180 15.77713056
Te 13.06175227 0.21423774 5.68373909
Te 13.23620522 0.65223474 16.14125211
Te 10.77447074 3.88052514 5.14037778
Te 10.88096747 4.38305495 16.01066865
Te 8.69340322 7.63085062 5.28202499
Te 8.75860578 7.98320057 15.84661056
Te 6.55729175 10.96706739 5.25388683
Te 6.58243677 11.61522148 15.81709064
192
Time=90000.00000003 pbc="T T T" Lattice="17.07799180 0.00497478 0.08665575 -8.65664682 15.03380587 -0.50307319 -0.32190141 0.42835895 20.88312652" energy=-818.65577501 virial="-0.69627235 -3.99170325 12.29825853 -3.99170325 -6.65558948 14.43804998 12.29825853 14.43804998 10.60156420" stress="0.00131979 -0.00074409 0.00229252 -0.00074409 0.00020891 0.00269140 0.00229252 0.00269140 0.00342582" Properties=species:S:1:pos:R:3
Ge -8.76461986 15.22236804 10.10893164
Ge 8.23477735 15.01763144 0.10158845
Ge 14.59091443 3.86601560 10.48392865
Ge -2.10023714 4.00498581 0.25758984
Ge -4.39544298 7.88008800 10.62499615
Ge 12.71876189 7.30792852 0.05364173
Ge 10.22568506 11.56705402 10.26363578
Ge -6.52114503 11.35683232 0.05420722
Ge 4.24130142 0.75994339 10.38344951
Ge -4.59250286 14.92745116 -0.22148219
Ge 1.84890431 4.12032625 10.52650190
Ge 2.15686849 3.58532762 0.55855875
Ge -0.22713888 7.70137010 10.21033237
Ge 0.11875039 7.60207236 -0.04382653
Ge -2.50541684 11.40355268 10.07032142
Ge -2.16244818 11.01713630 -0.00628327
Ge 8.40687022 0.24131582 10.67148395
Ge 6.20873403 3.96179365 10.59624452
Ge 6.11663715 3.72777509 0.10042618
Ge 4.14837856 7.83820426 10.26780048
Ge 4.35105287 7.71477317 -0.15781473
Ge 1.72989052 11.72134025 10.64261822
Ge 1.95953362 11.05466887 -0.24077417
Ge 3.75189090 15.00600462 9.80723185
Ge 4.18429981 15.00297135 -0.42110482
Ge 10.73601444 4.12805709 10.45300367
Ge 10.44158078 3.83072488 0.29317023
Ge 8.32457926 7.65113738 10.58851630
Ge 6.04061278 11.44026114 10.38127003
Ge 6.23920806 11.26313112 -0.03085360
Ge 1.85168759 1.36641741 3.84105003
Ge 2.16519629 1.34781070 13.96670321
Ge -0.18366212 5.20730650 3.61996610
Ge -0.39247770 5.36553931 13.75346509
Ge -2.14244367 9.00546693 3.64107448
Ge -2.82762495 9.42155988 13.88827300
Ge -3.92636711 12.38677325 3.25335872
Ge -4.59185233 12.90510668 13.61013042
Ge 6.34521059 1.01309460 3.48659584
Ge 6.56575840 1.78999377 14.00627877
Ge 4.15757093 5.32935384 3.47131145
Ge 3.78444962 5.35592895 13.84451155
Ge 1.95444777 8.95815713 3.73751334
Ge 1.63588037 9.43685882 13.75997629
Ge -0.15481432 12.42694700 3.18788673
Ge -0.34736051 12.74050929 13.36232995
Ge 10.55699448 1.59448639 3.65749105
Ge 10.33082775 1.52303862 14.68187972
Ge 8.12536756 5.46368081 3.48710239
Ge 8.41394487 5.28587038 14.13108884
Ge 6.12486288 9.19567285 3.27207447
Ge 6.07998124 9.15015199 14.19856765
Ge 4.14399725 12.82635926 13.53979496
Ge 14.53565487 1.54321738 3.79687537
Ge 14.75327524 1.70638790 14.06625454
Ge 12.75421693 5.18141474 3.34183173
Ge 12.66419672 5.08513430 13.99852509
Ge 10.71967652 8.85047001 3.57843539
Ge 10.54139211 8.70964630 14.08508499
Ge 7.97558744 12.45899752 3.03262747
Ge 8.18825919 13.04649401 13.70171862
Ge -0.15706647 2.65911618 17.36218918
Ge -2.25075400 6.52702173 7.24119007
Ge -2.39089360 6.62319795 17.75454928
Ge -4.69494028 10.39329223 6.87586050
Ge -4.85776423 10.51511071 17.42712185
Ge -6.49610020 13.94070578 6.56334471
Ge -6.72049827 14.11682005 17.21493307
Ge 3.69742175 2.67654595 7.14237246
Ge 4.07877388 2.73926644 17.80028753
Ge 2.12862985 6.59340437 7.09416097
Ge 1.69923184 6.49221262 17.25383089
Ge -0.20629354 10.39932829 17.29229131
Ge -2.30278953 13.91722492 6.49436833
Ge -2.76070391 13.78977474 17.42615015
Ge 8.25139434 2.65236486 6.55621301
Ge 8.15867280 2.83606281 17.35904674
Ge 6.34797862 6.20900133 7.06289827
Ge 6.14898239 6.19145829 17.51456490
Ge 4.00590278 10.32143170 6.95355951
Ge 4.17819478 10.23935714 17.15019232
Ge 1.60010916 13.87576976 6.50379320
Ge 1.89900067 14.01881988 17.23907508
Ge 12.45174610 2.60669156 7.02476631
Ge 12.64834671 2.64675074 17.68699628
Ge 10.25098463 6.59330940 7.13257767
Ge 10.36582999 6.64559062 17.48326928
Ge 8.27567349 10.49661606 6.87471632
Ge 8.29570100 10.65104847 17.38243022
Ge 5.90696255 14.27848785 6.65535814
Ge 6.12585915 14.22097106 17.37059523
Te -0.13235780 14.85955749 -0.26880975
Te 8.52617721 7.62194785 0.07812154
Te 3.92865836 12.63317803 3.33157492
Te -0.17788374 2.65164743 7.02337284
Te -0.15608868 9.99685684 6.99486496
Te 1.93858024 1.41470117 8.89337534
Te 1.96811196 1.76474710 19.41315631
Te 0.00901082 5.33646216 8.66938889
Te -0.24426253 5.37378300 19.28987351
Te -2.44833802 8.78536252 8.82277925
Te -2.23256933 9.22631089 18.97601317
Te -4.47822320 12.89802677 8.26265818
Te -4.86850884 12.94461575 18.95886437
Te 6.56354325 1.62731318 8.82331726
Te 6.31120541 1.57335268 19.12174887
Te 3.95621388 5.20334601 8.58307331
Te 3.94304509 5.43589528 19.16028348
Te 2.13241782 9.15147052 8.63030582
Te 1.67203674 8.91846166 18.99862004
Te -0.39606215 12.61311244 8.71084713
Te -0.28238267 12.56731773 18.69152365
Te 10.35769333 1.41081306 8.91087902
Te 10.54481555 1.52635739 19.11973759
Te 8.20142720 5.16181278 8.66973936
Te 8.39796843 5.22279650 19.13312107
Te 6.28678897 8.73363566 8.61184799
Te 6.16625017 9.02494376 18.80775551
Te 4.15620814 12.57520831 8.49778589
Te 4.05250124 12.77242772 18.84585910
Te 14.64599890 1.53671200 8.79488054
Te 14.88059138 1.63971257 19.28246438
Te 12.44250430 5.56488628 8.77283424
Te 12.58416676 5.49322083 19.20042427
Te 10.22900091 8.94535371 8.79458750
Te 10.38818111 9.18394005 19.17651166
Te 8.22358148 12.77989729 8.34890390
Te 8.22647802 12.83328514 18.89619424
Te -0.18116272 2.61046792 1.86952313
Te -0.26794991 2.78368102 11.90593790
Te -2.03393793 6.41209943 1.79129255
Te -2.39562287 6.41530255 11.89153376
Te -4.33225388 10.20306929 1.49813480
Te -4.81302107 10.43637334 12.12558327
Te -6.66430773 13.95767434 1.45235737
Te -6.68594491 14.04707824 11.81006008
Te 4.25841843 2.34442278 2.11075469
Te 3.95828191 2.88366593 12.20657503
Te 2.33892066 6.05736786 1.47063310
Te 1.95391984 6.57078211 12.00790377
Te -0.08776773 9.86599386 1.70850549
Te -0.28703509 10.30509178 12.08714761
Te -2.19107128 13.68053767 1.59875967
Te -2.54645957 13.82516247 11.89395094
Te 8.37844310 2.59457661 2.03355198
Te 8.38849842 2.86156986 12.35544825
Te 6.23594844 6.32274359 1.68041476
Te 6.33357375 6.71256778 12.41153355
Te 4.14650791 9.90510474 1.44396234
Te 4.06764031 10.09184764 11.98804417
Te 1.98842875 13.70376939 1.38798884
Te 1.94848098 14.23980161 11.73492139
Te 12.72608583 2.39100091 1.87295763
Te 12.51676020 3.09578646 12.21130272
Te 10.73495586 6.17740317 1.67380681
Te 10.35706383 6.49084594 12.22743090
Te 8.46782453 10.16229512 1.51637348
Te 8.34371736 10.37922801 12.20592187
Te 6.19802179 13.75213627 1.38395362
Te 6.17008985 13.82785087 11.93497604
Te 7.92184608 14.94479523 4.66874720
Te -0.13968631 0.66516580 15.67217357
Te 14.69585481 3.88832323 5.27739355
Te -2.22799358 3.96518039 15.52309598
Te 12.58739702 7.51010859 5.07717959
Te -4.51236831 7.92936908 15.45593243
Te 10.39470096 11.41950718 5.05062421
Te -6.65197482 11.49118009 15.53490419
Te 4.00548377 0.24342291 5.38221650
Te 4.10953776 0.43554937 15.76082637
Te 1.89141606 3.99908936 5.27481852
Te 1.92127050 4.01580591 15.57799107
Te -0.07343969 7.51113332 5.09867236
Te -0.30287280 7.66637586 15.35849946
Te -2.24854278 11.32672965 5.14089111
Te -2.26494221 11.67348367 15.56615551
Te 8.50152715 0.19659893 5.34518307
Te -0.31321179 15.10003181 15.58748231
Te 6.22335307 3.86828249 5.06172762
Te 6.28309579 3.99820135 15.63582910