192
Time=60000.00000005 pbc="T T T" Lattice="17.18198539 0.60343063 0.48395369 -9.19049947 14.55299730 -0.23357844 -0.57950492 0.09867891 21.21746454" energy=-818.10959446 virial="-11.02333367 3.10596090 -2.79497653 3.10596090 -4.53133814 -0.14531742 -2.79497653 -0.14531742 -10.92000097" stress="-0.00056779 0.00057228 -0.00051498 0.00057228 0.00062838 -0.00002678 -0.00051498 -0.00002678 -0.00054875" Properties=species:S:1:pos:R:3
Ge 7.71858288 14.98062673 11.07546018
Ge 7.93601801 15.09383867 0.48751293
Ge 14.73921310 3.93023051 11.17998712
Ge -2.26227927 3.57738149 0.28465290
Ge -4.74347647 7.19015950 10.64071382
Ge -4.39543468 7.33063435 0.25732315
Ge -7.06677469 10.82617972 10.62156816
Ge 10.11824150 11.57344273 0.51725262
Ge -5.41914252 14.63373466 10.27647634
Ge -4.82079035 14.37401839 0.17547637
Ge 1.74339170 3.91334766 11.04349655
Ge 1.91471459 3.63319038 0.39076789
Ge -0.54937863 7.17921596 10.81338980
Ge -0.96759563 7.56018874 21.21793513
Ge -2.76105906 11.20640284 10.84380529
Ge -2.69893404 10.86372138 0.35276171
Ge 8.45293718 0.38523872 10.90675002
Ge 6.44428010 4.13315846 10.99084319
Ge 6.13893482 3.80471036 0.47079996
Ge 3.55216555 7.62637944 10.49658637
Ge 3.80788106 7.91945570 0.43760678
Ge 1.17063205 11.29511249 10.97154565
Ge 1.63427893 10.98724269 0.42812130
Ge 12.69225056 0.61092797 11.20859738
Ge 3.52169567 14.63506351 0.57093985
Ge 10.24265991 4.10050853 10.90157657
Ge 10.51860368 3.82493719 0.39394652
Ge 8.54788686 7.64977228 10.93637893
Ge 5.55898420 11.50744019 10.95335011
Ge 6.11531114 11.45030292 0.66078330
Ge 1.86088844 1.32067925 3.88811913
Ge 1.91306274 1.36062185 14.34868926
Ge -0.07470239 5.18029193 3.43742351
Ge -0.41767959 5.38272773 14.33626470
Ge -2.80304212 8.67838186 3.57077158
Ge -2.71895709 8.69757967 14.35116247
Ge -4.90380199 12.06583502 3.69484882
Ge -5.19274928 12.12284195 14.27486044
Ge 6.30405412 1.42542564 4.12781138
Ge 5.84527100 1.33179940 14.59306193
Ge 3.70412664 4.89139524 3.95801860
Ge 3.78455753 5.39366089 14.38073955
Ge 1.67228275 8.73962863 4.09748676
Ge 1.47579861 8.98478245 14.45916296
Ge -0.70277258 12.24399570 3.62495700
Ge -0.96051720 12.42460383 14.00144591
Ge 10.53675135 1.83078065 4.29462235
Ge 10.16103912 1.72219772 14.50027653
Ge 7.91038793 5.02329926 4.01730479
Ge 7.63128027 5.49737253 14.35542509
Ge 5.92492334 8.92841768 4.13053165
Ge 5.61199790 9.09758129 14.77188815
Ge 3.19685383 12.85000873 14.42357419
Ge 15.04212983 1.76418962 4.06809946
Ge 14.32532838 2.35401198 14.54815425
Ge 12.30028307 4.94330609 4.04634251
Ge 12.32240333 5.91928579 15.01527579
Ge 9.89666602 8.83804855 4.03581540
Ge 9.94002168 9.35716200 14.61854665
Ge 7.90621713 12.54752907 4.34991279
Ge 7.85648996 12.59041073 14.36908243
Ge -0.71750336 2.47562793 17.61225898
Ge -2.60357787 6.23926840 7.10116104
Ge -3.06328416 6.09210540 17.88626326
Ge -4.50435848 9.52513959 6.99082030
Ge -5.22676621 9.89898878 17.83559387
Ge -7.21450736 13.24727826 7.24708679
Ge -7.45234200 13.79568559 17.68263242
Ge 3.92408771 2.33043641 7.03083245
Ge 3.54269609 3.14708214 18.19627169
Ge 1.75709801 6.28542545 7.32529254
Ge 1.54161435 6.43779998 17.99939937
Ge -0.85833633 10.24021185 17.96706940
Ge -2.96520561 13.63789070 7.26108429
Ge -3.24473654 13.84785636 17.89351409
Ge 8.23270203 2.36896286 7.61275705
Ge 8.00831501 2.90397753 18.19209170
Ge 5.62651364 6.53133419 7.55309492
Ge 6.01761821 6.71035105 17.89835090
Ge 3.64802693 10.18000210 7.60197792
Ge 3.54502406 9.97241606 18.07870309
Ge 1.48064155 13.95601294 7.17255172
Ge 1.00877743 13.90850548 18.13597891
Ge 12.72181312 3.04350073 7.48066474
Ge 12.08955689 2.68905716 18.29201893
Ge 10.71238112 6.33813250 7.72604006
Ge 10.14655627 6.52423618 18.33950265
Ge 7.83452934 10.20349493 7.30961119
Ge 7.71674775 10.22003225 18.45381330
Ge 5.72801339 13.70944639 7.54383070
Ge 5.47988602 13.97333573 18.08049046
Te -0.69989562 14.64865479 0.47426172
Te 8.25827055 7.70237608 0.59031426
Te 3.48186408 12.74695821 3.95995659
Te -0.37029150 2.63079851 7.07712204
Te -0.62075942 10.00410587 7.27727616
Te 1.80523378 1.38062306 9.20059245
Te 1.48003608 1.57737752 19.43154438
Te -0.49970506 5.04861348 9.07086407
Te -0.90694878 5.23452058 19.44939350
Te -2.73775067 8.67416011 8.96960548
Te -2.96454147 8.75578979 19.34323119
Te -4.88641187 12.26044712 8.83176620
Te -5.67646713 12.37791289 19.36856211
Te 6.12145834 1.50069312 9.28597081
Te 5.76956533 1.46986276 19.82031675
Te 3.88764926 4.98365467 9.12314223
Te 3.79294653 5.34806136 19.53028795
Te 1.41544264 8.82341438 9.04865315
Te 1.32172917 8.68163671 19.80266750
Te -0.90627752 12.68045005 9.13425258
Te -1.09377595 12.56026380 19.53664816
Te 10.50763245 1.71061553 9.28676909
Te 10.29187903 1.56231892 20.02736811
Te 8.35014002 5.32669621 9.29757889
Te 8.01215688 5.43427950 19.55716292
Te 6.01363750 8.80160338 9.34224587
Te 5.46496002 8.88516365 19.73573658
Te 3.37237027 12.52814782 9.04448573
Te 3.14733704 12.92528998 19.69576132
Te 14.54752105 1.77386757 9.37104137
Te 14.71539851 1.76260008 19.84370351
Te 12.56183128 5.31560276 9.42128074
Te 12.25722086 5.62700151 20.04555388
Te 10.36835889 9.06379079 9.03588233
Te 9.94372047 9.09166489 19.93743987
Te 7.78172028 12.76955079 9.16405692
Te 7.53157053 12.69662102 19.66279068
Te -0.04738063 2.45098632 2.02734985
Te -0.37046980 2.51340626 12.37940212
Te -2.40614092 6.15672416 1.59185892
Te -2.70144231 6.18326427 12.34436541
Te -4.78515853 9.66252910 1.84115312
Te -4.92925902 9.72804592 12.25986478
Te -6.74284309 13.40655883 1.82057307
Te -7.35855921 13.38584420 12.06174540
Te 3.97060889 2.66026735 1.89761676
Te 3.70444307 2.85801107 12.73680419
Te 2.13082097 6.28874847 1.83282079
Te 1.68855103 6.30460804 12.52442089
Te -0.51176102 9.78821900 1.85543427
Te -0.79634291 9.93127832 12.50500952
Te -2.87211523 13.39013722 2.00737269
Te -3.27812992 13.60904104 12.30862660
Te 8.26890779 2.66988529 2.13522033
Te 8.18751473 2.69403535 12.89661542
Te 6.19567847 6.27209735 2.03138961
Te 5.67686207 6.40268185 12.58266935
Te 3.76858784 10.20882859 1.94220796
Te 3.52530791 10.19951694 12.63519508
Te 1.39981453 13.59894918 1.94650408
Te 1.20416654 13.60467023 12.58068294
Te 12.68330339 2.97190530 2.12452154
Te 12.20255588 2.86140672 12.97451158
Te 10.49743559 6.61625844 2.44374915
Te 10.37874529 6.57239899 13.07989940
Te 8.14510380 10.35268659 2.35311377
Te 7.98413913 10.41134233 12.58550697
Te 6.09116294 13.76411320 2.07796092
Te 5.58472582 13.95176500 12.51553034
Te 7.80923570 15.15389631 5.59261432
Te -0.17494223 0.21366440 16.04661635
Te -2.40644995 3.83169895 5.38200447
Te -2.59021232 3.98669687 15.84230554
Te -4.66454277 7.33303756 5.40807178
Te -4.97975881 7.57993008 15.96500300
Te -6.97578632 11.03574544 5.67870828
Te 9.77646708 11.53366150 16.21566166
Te -5.02201828 14.56551927 5.28010266
Te -5.28024541 14.52754953 15.77319143
Te 1.92495928 3.59556605 5.63772928
Te 1.47884372 3.84362162 15.99807374
Te -0.35227926 7.15956224 5.42332262
Te -0.84092426 7.61857105 16.07968441
Te -2.83220497 11.02587710 5.18747390
Te -2.80879647 11.26258366 15.88758559
Te -0.71474970 14.87592115 5.58372852
Te -0.95261962 14.81642091 15.84488366
Te 6.11072791 3.77302156 5.89950205
Te 6.05277409 3.64766356 16.15607648
Te 3.64989934 7.71584994 5.71276019
Te 3.54891788 7.93258258 16.20713326
Te 1.65752994 11.17073671 5.67396485
Te 1.27043921 11.44784047 15.87835873
Te 12.72570800 0.82608447 5.87825101
Te 3.29294512 15.06644142 16.13260587
Te 10.25811691 4.12932088 5.88577954
Te 10.31488769 4.30256779 16.32523446
Te 8.09104817 8.00825010 5.86128750
Te 7.94149501 7.86805187 16.13832311
Te 5.84121940 11.29044315 5.77413485
Te 5.42751847 11.62391850 16.06393859
192
Time=70000.00000007 pbc="T T T" Lattice="17.24052661 0.56357864 0.33906422 -9.16695019 14.53350225 -0.11929049 -0.50221181 0.17921311 21.04005164" energy=-819.06861871 virial="-19.69593617 -2.90082859 2.36079477 -2.90082859 -2.92206113 -0.18992584 2.36079477 -0.18992584 -10.55633153" stress="-0.00218356 -0.00053888 0.00043856 -0.00053888 0.00093250 -0.00003528 0.00043856 -0.00003528 -0.00048571" Properties=species:S:1:pos:R:3
Ge 16.89981160 0.68827447 10.81479193
Ge 17.04386252 0.66631909 0.67821334
Ge -2.62753832 3.93773946 10.65294822
Ge -2.34103663 3.87763198 0.21671329
Ge -4.95786543 7.68825589 10.49812597
Ge -4.66005407 7.39278613 0.01941607
Ge 10.11949784 11.43448146 10.70681825
Ge 10.19948245 11.69331874 0.34012919
Ge -5.23418811 14.70533363 10.67382942
Ge -5.07119847 14.43340361 0.31670288
Ge 1.71405645 3.84865647 10.57767823
Ge 2.24633262 3.36745318 0.44054891
Ge -0.58502068 7.53323801 10.37380915
Ge -0.30513308 7.75288636 0.49601081
Ge -2.80419443 11.36733519 10.88616186
Ge -2.56178946 11.25083011 0.19965116
Ge -0.51115946 14.27601889 10.75952893
Ge 5.78891126 4.10467753 10.63064925
Ge 5.99993260 4.26410895 0.19983568
Ge 3.68574465 7.70784922 10.90650382
Ge 3.86841830 7.76824821 0.33259789
Ge 1.62847253 11.34203044 10.89343666
Ge 1.76603246 11.51880409 0.21703550
Ge 12.62597464 0.84525266 10.72626080
Ge 12.55603345 0.82298021 0.47113286
Ge 10.28767668 4.09435779 10.87168841
Ge 10.42757953 4.12731646 0.62693827
Ge 7.81131389 7.81066020 11.04322914
Ge 6.08341342 11.42291049 10.65318875
Ge 5.98274918 11.10151712 0.24217585
Ge 1.97734030 1.09024784 3.66167563
Ge 1.50464419 1.32237758 14.00838424
Ge -0.25842300 5.11812244 3.63073531
Ge -0.46690823 5.15656138 14.09501788
Ge -2.41977375 8.89665869 3.60212540
Ge -2.75501354 8.69951036 14.26753973
Ge -4.53959835 11.87036460 3.38728738
Ge -5.24848958 12.28102841 14.23869775
Ge 6.34516055 1.48712586 3.89781923
Ge 5.99276213 1.66036283 14.31325500
Ge 4.01985289 5.11870288 3.64066036
Ge 3.63334891 5.15637067 14.43279873
Ge 1.75754923 8.99997280 3.81242317
Ge 1.57606985 8.94163435 14.08313442
Ge -0.47474065 12.62512545 3.79205277
Ge -0.76854593 12.41560424 14.24681184
Ge 10.70029118 1.72858465 4.00852725
Ge 10.52003480 1.97239477 14.62699148
Ge 8.30667389 5.04150446 3.97746664
Ge 8.07925662 5.12463030 14.38339757
Ge 6.16626670 8.97640436 3.78325533
Ge 5.94116289 8.76861535 14.44382934
Ge 3.97213600 12.63168588 14.69542165
Ge 14.77210152 1.77366536 3.91132543
Ge 14.94488766 1.74848526 14.31027791
Ge 12.43309333 5.78880484 4.17923521
Ge 12.35060698 5.43805887 14.18931064
Ge 10.43026323 9.05676984 3.67467867
Ge 10.22053501 9.21401318 14.46718514
Ge 7.80699005 12.54836941 3.88763008
Ge 8.00188537 12.58148920 14.45447843
Ge -0.64247636 2.84086325 17.62400754
Ge -2.71020736 6.23756081 7.41064401
Ge -2.52356034 6.55935701 17.80584611
Ge -4.58265445 10.14780738 7.16661556
Ge -5.11541608 9.86656022 17.92337686
Ge -6.87091948 13.58523482 6.63396862
Ge -7.49489367 13.55498266 17.97580228
Ge 4.31827325 2.41494303 7.58064119
Ge 3.68999519 2.60069351 17.84899406
Ge 1.69735413 6.70711816 7.05170348
Ge 1.44863181 6.44649674 17.78080771
Ge -0.79228693 10.42465593 17.79734411
Ge -3.16644016 13.70812494 7.25656249
Ge -3.12698894 13.65877745 17.52045185
Ge 8.19622478 3.02504225 7.61454839
Ge 7.86762065 3.15569399 18.03413801
Ge 6.00785396 6.69577373 7.38652027
Ge 6.04972993 6.54210985 18.01485645
Ge 3.71336950 9.86927709 7.37243194
Ge 3.43172112 10.39978731 18.08589888
Ge 1.50557936 13.38606045 7.42478320
Ge 1.02756604 13.83368210 17.73652899
Ge 12.63975395 3.21948976 7.28369714
Ge 12.14191703 3.22338814 18.14650295
Ge 10.48627520 6.85624263 7.17316579
Ge 10.13797526 6.99156776 17.86675090
Ge 8.30145682 10.22817973 7.07897797
Ge 7.79392787 10.19362631 18.00851029
Ge 5.62930212 13.70244454 7.49475384
Ge 5.54998720 13.69970105 18.00808680
Te 8.56464797 0.57506517 0.27224017
Te 7.71130816 8.03106627 21.22668913
Te 3.65533332 12.80455284 3.79445013
Te -0.25535377 2.56344288 6.96829905
Te -0.56248332 9.97103515 7.13109631
Te 1.90561230 1.23872315 9.05806678
Te 1.65376784 1.37809044 19.52172930
Te -0.44197416 4.87015011 9.07601669
Te -0.58593753 5.02881282 19.58029659
Te -2.77820817 8.80014398 9.12527744
Te -2.71383165 8.89068822 19.51796133
Te -4.83990734 12.24601260 8.89986813
Te -5.20575278 12.24595320 19.39291181
Te 6.20540763 1.28641494 9.39556503
Te 5.84417374 1.47598040 19.57352657
Te 3.93630617 5.22185689 8.92160274
Te 3.50119041 5.09593579 19.36233016
Te 1.60661399 8.82382407 9.04915117
Te 1.32683929 8.73107819 19.48757302
Te -0.64963393 12.25034678 9.10532529
Te -0.95493222 12.55057837 19.44475636
Te 10.54667944 1.70772739 9.08374527
Te 10.14440065 2.24210843 19.90211968
Te 8.41218778 5.35096497 9.15260575
Te 8.00310251 5.43455619 19.73782887
Te 5.92121518 9.00572136 8.95129888
Te 5.44086610 8.94372872 19.55128802
Te 3.56287988 12.49205108 9.07084828
Te 3.28010448 12.74740760 19.56123641
Te 14.76112028 1.76989980 9.21102108
Te 14.77372752 1.84949795 19.64210210
Te 12.59395929 5.41643787 9.45455198
Te 12.48056716 5.45149343 19.60673328
Te 10.17027245 9.05100400 9.19137712
Te 10.13257485 9.26610153 19.77199357
Te 7.96663085 12.81752256 9.11502492
Te 7.63386624 12.57936599 19.60581380
Te -0.18832629 2.43367711 1.69402142
Te -0.28933945 2.39923502 12.11095500
Te -2.43747059 6.15715648 2.00625612
Te -2.62923978 6.20636824 12.41599049
Te -4.62676549 9.64920173 1.76090863
Te -4.90466013 9.80342302 12.34591190
Te -7.16334459 13.34158985 1.90051609
Te -7.17131537 13.34379452 12.44099820
Te 4.23187211 2.36781635 1.82206103
Te 3.92721863 2.56063786 12.62101541
Te 1.88915945 6.20377796 1.73344808
Te 1.69808546 6.30318404 12.54066674
Te -0.45167396 9.97260774 2.13042481
Te -0.69097762 10.00494301 12.17178589
Te -2.71011474 13.54582450 1.88814906
Te -2.77600839 13.64863189 12.63453168
Te 8.18372844 2.99829975 2.06459451
Te 8.30885183 2.75693540 12.72154815
Te 5.96762960 6.43315604 2.15330056
Te 5.89455248 6.24723799 12.59213292
Te 3.96196358 10.07840376 1.85878539
Te 3.89520413 9.95100724 12.48725171
Te 1.54961847 13.80595722 2.06954367
Te 1.47685589 13.57293106 12.57612059
Te 12.67820816 3.08688391 2.20429039
Te 12.62936996 2.85122409 12.75291201
Te 10.59270729 6.66039633 2.08040452
Te 10.17867414 6.62222013 12.56946099
Te 8.17866426 10.14355048 2.23901831
Te 8.03757638 10.28866049 12.59410443
Te 5.91005537 13.66755284 1.85399891
Te 5.68045854 13.78917031 12.74367516
Te 7.91265819 15.10425487 5.51990340
Te -9.34480217 14.46041074 15.68780361
Te 14.71950470 4.23072684 5.58455408
Te -2.55281221 3.79875374 15.75010059
Te -4.46601980 7.51281613 5.37393694
Te 12.24390214 7.91944482 16.01642353
Te -6.83181801 11.03994385 5.43803806
Te 10.20016840 11.14305922 16.21621970
Te 4.32490137 0.24126231 5.23335188
Te -5.16683922 14.62732001 15.72910174
Te 2.08563364 3.77752212 5.28686593
Te 1.48512997 3.79210241 15.89700255
Te -0.22922777 7.37652768 5.27796607
Te -0.57973355 7.52320826 16.00456657
Te -2.76277962 11.31289966 5.33462204
Te -2.86847156 11.01200241 15.88729321
Te -0.72853052 14.79347154 5.27979747
Te -1.08448790 14.84116582 15.87517986
Te 6.23683992 3.73492473 5.43424361
Te 5.86833235 3.96019527 16.23804618
Te 3.81867211 7.49853266 5.51381735
Te 3.57565002 7.47912688 15.95987428
Te 1.76216636 11.22752335 5.43253055
Te 1.48134043 11.34005698 15.80140392
Te 12.68641282 0.70034424 5.99996850
Te 3.54969988 14.99122881 16.22292945
Te 10.32926513 3.99890871 5.78413233
Te 10.18485341 4.17235474 16.30525353
Te 8.23079933 7.67321520 5.43265720
Te 7.93317404 7.75652622 16.26075920
Te 5.80842599 11.13701902 5.68775924
Te 5.96645091 11.24967740 16.00660779
192
Time=80000.00000008 pbc="T T T" Lattice="17.27608767 0.47407189 0.75289276 -8.92307772 14.61604140 -0.27798092 -1.01664167 -0.01647745 21.12398406" energy=-817.81785285 virial="-12.13637704 -11.79014271 8.37026694 -11.79014271 -7.29814908 -1.37924573 8.37026694 -1.37924573 -13.15371195" stress="-0.00077171 -0.00216909 0.00153992 -0.00216909 0.00011841 -0.00025375 0.00153992 -0.00025375 -0.00095887" Properties=species:S:1:pos:R:3
Ge 7.88845739 14.81861307 11.28692563
Ge 8.22754395 14.89286940 0.88482318
Ge -2.71635858 4.08835254 10.74767042
Ge 15.06142589 4.02552147 1.31386920
Ge 11.95128269 8.06050466 11.09018224
Ge 11.73657228 7.75963828 21.64069381
Ge -7.08106909 11.04474508 10.46356348
Ge -6.48716723 11.02181648 -0.09829551
Ge 3.54302161 0.14674290 10.77578130
Ge -4.50279996 14.72791110 0.38569492
Ge 1.43740693 3.26918251 10.73663394
Ge 1.97976161 3.93274128 0.37402450
Ge -0.72287546 7.25255162 10.78246764
Ge -0.47460930 7.52089474 0.32317161
Ge -2.65237679 10.54252092 10.64271892
Ge -2.42983851 11.38936692 0.33364426
Ge -1.04497577 14.58959899 11.00123105
Ge 5.81922737 4.32763500 10.95755175
Ge 6.30494974 3.63059806 0.36009225
Ge 3.46361191 7.51686711 10.91016651
Ge 4.20811369 7.59450886 0.42492442
Ge 1.37826775 11.35295462 11.08826835
Ge 2.16703463 11.64390655 0.22243753
Ge 12.59613896 0.49581218 11.10367272
Ge 3.98978127 14.86632878 0.37568382
Ge 10.46129739 3.90667685 11.26698307
Ge 10.78867929 4.01648387 0.55835284
Ge 7.65589237 7.79299791 11.14032581
Ge 5.40765771 11.18206379 11.00815277
Ge 6.22849107 11.46146848 0.47056975
Ge 1.80415992 1.00408901 3.66616124
Ge 1.60612959 1.50931776 14.22909510
Ge 0.05158377 4.98429720 3.88681943
Ge -0.88983632 4.97065268 14.09339947
Ge -2.74332779 8.80788873 3.68518277
Ge -3.41300425 8.56498474 14.29358021
Ge -4.34644235 12.48520907 3.75982162
Ge -5.38998574 12.48145631 14.45315696
Ge 6.06629400 1.76784347 4.04215117
Ge 5.72440805 1.37337290 14.38107937
Ge 4.09495307 5.37099191 3.74908876
Ge 3.82764395 5.04716971 14.45961973
Ge 1.78623677 8.93708074 3.47211200
Ge 0.96508496 8.57756775 14.51858827
Ge -0.68570633 12.58776962 3.78792509
Ge -1.21717450 12.23637202 14.34534888
Ge 10.43651644 1.66512322 4.32405620
Ge 9.94769033 1.68323439 15.00668492
Ge 8.70935165 5.61530652 4.01935306
Ge 7.86414221 5.14804196 14.48769651
Ge 6.20755310 8.80731250 4.10867642
Ge 5.71337496 8.85741175 14.67275041
Ge 3.69480137 12.41776671 14.42697668
Ge 14.70574005 1.50894109 4.30974248
Ge 14.17083558 1.63723284 14.89486135
Ge 12.79147362 5.41571514 4.43650102
Ge 12.13299009 5.35171281 14.75985183
Ge 10.55366389 9.25343494 4.18433144
Ge 10.03201603 9.09802176 14.82940154
Ge 8.15342299 12.43334889 4.01830134
Ge 7.63755320 12.36832306 14.73950827
Ge -0.84506439 2.60091143 17.64863619
Ge -2.50330904 5.99908020 7.03857276
Ge -3.00293682 5.90295038 17.73873996
Ge -5.02132628 9.80838589 6.96794606
Ge -5.47592754 10.01711183 17.80817366
Ge -6.98481826 13.20645829 7.25128981
Ge -7.68468888 13.66556486 17.67821728
Ge 3.77602330 2.69907102 7.46587298
Ge 3.25185575 2.81919464 18.05099953
Ge 1.91935242 6.31559655 7.37103256
Ge 1.03941139 6.38355265 17.96864478
Ge -0.97296221 10.14120820 17.75895691
Ge -3.09175219 13.93231035 7.29023654
Ge -3.14359858 13.59123114 17.96864015
Ge 7.83999945 2.70865426 7.44038788
Ge 7.71759491 2.85050110 18.28108698
Ge 5.95550986 6.55120857 7.22525908
Ge 5.64177646 6.45062201 17.99916218
Ge 3.79848844 10.15321144 7.05763418
Ge 3.21068762 9.99539107 18.43832453
Ge 1.28235775 13.66423904 7.28741418
Ge 0.62467789 13.96532622 18.03947189
Ge 12.62463035 2.66578145 7.41804309
Ge 11.80690611 2.70885213 18.57879476
Ge 9.74379214 6.55856838 7.99936805
Ge 9.57259531 6.45085729 18.42494980
Ge 7.90371007 10.08105601 7.78916654
Ge 7.46917891 10.47392337 18.18353280
Ge 5.55309639 13.91126084 7.67705642
Ge 5.63463892 13.99712940 18.06150316
Te 8.45122048 0.45700580 0.65837615
Te 8.54296025 7.60501835 0.60968217
Te 3.81042219 12.20102645 3.83331263
Te -0.30509411 2.38728185 7.04317597
Te -0.40931775 9.86507497 7.26702931
Te 1.85401594 1.38255806 8.98772975
Te 1.14049252 1.41553163 19.47493069
Te -0.22852443 4.77723208 8.97262218
Te -0.95064345 4.98561550 19.47518589
Te -2.98405052 8.45161485 8.97149704
Te -3.31284189 8.42434156 19.44399824
Te -4.74146710 12.00896966 8.82386532
Te -5.30628486 12.25762322 19.50229382
Te 6.20022403 1.41930040 9.40663062
Te 5.37222953 1.41521918 19.75485162
Te 3.81375137 5.23325104 9.37407085
Te 3.09041453 5.12893096 19.67991303
Te 1.77467440 8.56000089 9.09516914
Te 0.99967479 8.75485925 19.63389800
Te -0.66644296 12.25339315 9.30183946
Te -1.08354406 12.29650094 19.38697981
Te 10.22094066 1.72087925 9.55665231
Te 9.72910339 1.46265457 20.10765589
Te 7.97884525 5.39450753 9.36704947
Te 7.54924162 4.98679826 20.02989688
Te 5.59664103 8.76925598 9.42580827
Te 5.24060107 8.80754197 19.82115887
Te 3.67063729 12.45371385 9.05913665
Te 3.31707392 12.56211876 19.48936690
Te 14.63130466 1.61273969 9.54938716
Te 14.26743184 1.48936632 20.27497767
Te 12.50307058 5.44328611 9.65114812
Te 11.76608191 5.19090996 20.04794323
Te 10.10920934 9.03574221 9.30513315
Te 9.85784904 9.09451055 19.89863144
Te 8.12690363 12.52578072 9.37957480
Te 7.63904140 12.65136841 19.92005720
Te -0.09095439 2.43890872 1.89318967
Te -0.38202470 2.22526413 12.53923675
Te -2.27430799 6.17758136 1.82415331
Te -3.00213941 6.04110032 12.51556385
Te -4.65548844 9.98250119 1.82348297
Te -5.41046933 9.94138912 12.37747069
Te -6.60260031 13.51603773 1.68098007
Te -7.27682867 13.26649322 12.17655918
Te 4.21029736 2.52118340 2.04408432
Te 3.96703955 2.58042985 12.51637095
Te 1.83392610 6.51982706 1.98488007
Te 1.35489214 6.18415084 12.75662068
Te -0.33721887 9.77237893 2.05394863
Te -0.82266011 9.69662358 12.49088323
Te -2.61517361 13.73707206 2.01126175
Te -3.21206078 13.08802699 12.28376955
Te 8.65282647 2.82112527 2.44046829
Te 8.31899855 2.83585085 13.03610095
Te 6.14555245 6.31731243 2.27676674
Te 5.82256070 6.42898458 12.89426035
Te 4.15521499 10.04119791 1.89376558
Te 3.59623560 9.92821973 12.78451020
Te 1.85344886 13.67184746 2.05876567
Te 1.43258901 13.51553937 12.74184419
Te 12.77084750 2.42772025 2.33114572
Te 12.27898256 2.73912505 13.14917566
Te 10.81701905 6.49578869 2.50450983
Te 10.00007219 6.31542805 13.31857591
Te 8.47573828 10.08569591 2.22833941
Te 8.03140322 9.95004899 12.82886547
Te 6.18934907 13.66482207 2.19292830
Te 5.81382742 13.75351246 12.93084996
Te 8.05468559 15.06632002 5.87362694
Te -0.49187379 0.12325298 15.97185285
Te 14.73317231 3.98800959 6.06259770
Te -2.85313782 3.51317477 15.82835559
Te -4.65260635 7.26473533 5.25871948
Te 12.01835737 7.39093014 16.53437486
Te 10.08586051 11.31515756 6.11660917
Te 9.87891775 11.32532416 16.41292945
Te 4.00521561 0.34795920 5.63504898
Te 3.63728816 0.33061358 16.11942959
Te 2.09602941 3.82845992 5.40337911
Te 1.25344705 3.71975625 15.94065460
Te -0.41574191 7.12323407 5.68693933
Te -0.91887739 7.28647644 15.98087010
Te -2.53981859 11.21326862 5.61212962
Te -3.16133953 10.80787430 15.88528103
Te -0.63956711 14.79555460 5.54229538
Te -1.14505336 14.66355420 15.95156116
Te 6.02231556 3.96402059 5.82378998
Te 5.74051330 3.84928915 16.47793409
Te 4.05327118 7.73880555 5.66683063
Te 3.71525714 7.57042213 16.11264465
Te 1.50095347 11.08179835 5.60928236
Te 1.23173342 10.94842050 16.03603828
Te 12.59871906 0.35543103 5.94103525
Te 3.29969093 14.67248839 16.36616065
Te 10.45825810 4.17917816 5.90752233
Te 10.08007955 3.89101130 16.62704200
Te 8.17059689 7.88388178 5.81202226
Te 7.68169072 7.76411112 16.47213809
Te 6.23034087 11.22856797 5.87096069
Te 5.59638246 11.43746760 16.38662496
192
Time=90000.00000003 pbc="T T T" Lattice="17.22424780 0.30405395 0.81644272 -8.70308131 14.80472226 -0.71008716 -0.82465686 0.31715615 21.08656513" energy=-818.28107780 virial="-17.85582168 -3.32937407 -10.39399104 -3.32937407 -13.88132441 7.07118582 -10.39399104 7.07118582 -14.47153083" stress="-0.00182116 -0.00061159 -0.00190932 -0.00061159 -0.00109107 0.00129894 -0.00190932 0.00129894 -0.00119949" Properties=species:S:1:pos:R:3
Ge -0.48288305 0.47940417 10.77092780
Ge 8.37200112 15.03856803 0.53301561
Ge -2.42053550 4.16118480 10.67423825
Ge 15.07712677 3.82075754 0.67538576
Ge -4.51030488 7.49016942 10.20829024
Ge 12.66918031 7.46023719 0.51587715
Ge 10.01097067 11.64564274 10.73883076
Ge -6.61135686 11.42067550 -0.38774880
Ge 4.19538649 0.55103946 11.01523191
Ge 4.16666006 0.20896954 0.52470288
Ge 1.93633634 3.74110331 10.44914176
Ge 2.16261932 3.70675988 0.22700599
Ge -0.64217150 7.50438712 10.33771454
Ge -0.13624591 7.68720726 0.00319359
Ge -2.60064214 11.38253846 10.49348446
Ge -2.41327737 11.26602789 0.21786331
Ge -0.70962495 14.66604084 10.26895239
Ge 5.82170579 3.97501989 10.78105421
Ge 6.50080968 3.92571588 0.44630166
Ge 3.43063142 7.64234754 10.43149689
Ge 4.15735857 7.87069626 0.12058975
Ge 1.66231234 11.49954996 10.27856164
Ge 2.03573229 11.14966148 -0.00565270
Ge 12.52250208 0.67510108 11.24221800
Ge 12.14937668 0.78543919 21.63090364
Ge 10.48410258 4.38787923 10.88981435
Ge 10.70082044 3.76173324 0.78711985
Ge 8.45458934 7.82839386 10.62754656
Ge 5.64011737 11.44529454 11.07274114
Ge 6.18648960 11.18393068 0.35037333
Ge 1.96299563 1.20877335 4.00833961
Ge 1.70434523 1.44882366 14.35596196
Ge -0.15859781 5.14270260 3.57139552
Ge -0.66562055 5.45971043 14.13985897
Ge -2.19666823 8.80480662 3.19412827
Ge -2.35510164 8.92131846 13.91330960
Ge -4.43795204 12.30869910 3.28530506
Ge -4.74616138 12.30628803 13.73973498
Ge 6.48175960 1.47286741 4.13063825
Ge 6.09520584 1.84759545 14.35517316
Ge 4.41029510 4.99321198 3.71788465
Ge 3.55029594 5.44162021 14.63122483
Ge 1.83358474 8.47492814 3.54658860
Ge 1.44175645 8.74088445 14.33539645
Ge 0.07337731 12.36595606 3.22097984
Ge -0.31838544 12.70348328 13.81225250
Ge 10.44635728 1.53221185 4.30387651
Ge 10.33630248 1.53424422 14.72208389
Ge 8.40907472 5.03463490 3.80150826
Ge 7.97141081 5.31251806 14.18220387
Ge 6.10763327 9.14687906 4.09949028
Ge 5.79638000 9.28578118 14.22870396
Ge 3.52952270 12.63126212 14.28747210
Ge 14.65348031 1.72315146 4.35404877
Ge 14.55295577 1.91206760 14.64695155
Ge 12.73828798 5.03886055 4.36056729
Ge 12.21277127 5.28750101 15.04621840
Ge 10.33502119 8.92361186 3.86484061
Ge 10.35935399 9.11396985 14.39164734
Ge 8.20130454 12.60697701 3.72842376
Ge 8.28688220 12.89944133 14.05810249
Ge -0.54132853 2.71108613 17.59008449
Ge -2.61618748 6.41429255 7.00062369
Ge -2.81164727 6.25922458 17.54408875
Ge -4.63170425 10.23853960 6.70190954
Ge -4.94035013 10.14200695 17.28099402
Ge -6.85560742 13.57127720 6.46966168
Ge -7.15181061 13.84609692 16.98987052
Ge 4.03234965 2.72743151 7.17958931
Ge 3.75131206 2.67833688 18.33868896
Ge 1.43458260 6.44582580 7.00406877
Ge 1.57841405 6.12646969 18.29471190
Ge -1.01268314 10.42875928 17.54101734
Ge -2.59980479 13.66359830 6.83751727
Ge -3.02612489 13.91410458 17.48882728
Ge 8.65604949 2.50076231 7.44291351
Ge 7.92796716 3.07506945 18.22790321
Ge 6.16506164 6.68820870 7.32485436
Ge 5.96918665 6.63216940 17.89372755
Ge 3.92999240 10.17146590 6.92123256
Ge 3.65020712 10.57861208 17.86339486
Ge 1.68886731 13.66150874 7.19461331
Ge 1.27602226 13.93672418 17.66760122
Ge 12.42814579 2.71899075 7.44486839
Ge 11.99557565 2.78381443 18.21194315
Ge 10.45828598 6.79550850 7.31198203
Ge 10.21907728 6.81717058 18.06294633
Ge 8.12839954 10.51165022 7.57879157
Ge 8.00755847 10.38978598 18.09781640
Ge 6.11490473 14.06191588 7.02194286
Ge 5.64243320 14.09932279 17.66807362
Te 0.07517646 14.67612862 -0.06550968
Te 8.42429800 7.63417856 0.29502472
Te 4.05621730 12.53732617 3.72076693
Te -0.33304414 2.48628924 6.94186303
Te -0.32569894 9.88511443 6.90952935
Te 1.83755674 1.31224166 8.94752076
Te 1.49128972 1.49067232 19.32854638
Te -0.59448352 5.27269737 8.78597782
Te -0.76912794 5.18315851 19.28298683
Te -2.69039525 8.89423365 8.82734877
Te -3.03706759 8.90327291 19.28257709
Te -4.82799061 12.46648320 8.35930067
Te -5.12152968 12.61800281 19.00952376
Te 6.28324270 1.42965319 9.27592635
Te 5.78841933 1.64566057 19.78417720
Te 3.84873777 5.30518007 8.95300943
Te 3.63362571 5.15563690 19.85174198
Te 1.66044338 8.79198897 8.78488143
Te 1.12003486 8.85512656 19.24039901
Te -0.44355301 12.50037805 8.75732199
Te -0.74602753 12.60664006 19.33370039
Te 10.48207653 1.72867634 9.39722953
Te 10.00863089 1.81796987 19.87582528
Te 8.39506364 5.45246579 9.09208142
Te 7.90865297 5.29267750 20.04508068
Te 6.02547694 9.04812385 9.14350134
Te 5.43592462 9.37667850 19.54087025
Te 3.77055706 12.60776394 9.03147768
Te 3.19530258 13.00495109 19.47762436
Te 14.69704558 1.76625295 9.71276345
Te 14.37835096 1.75138167 20.35619926
Te 12.56681619 5.40817713 9.43318627
Te 12.18812004 5.27295805 20.33849265
Te 10.33383681 9.35813230 9.17041070
Te 9.99362228 9.04219205 19.75757146
Te 8.05595611 12.90941534 9.26889516
Te 8.00047761 12.76304161 19.53746620
Te 0.02109750 2.41117922 1.88801121
Te -0.30504462 2.92965413 12.34111861
Te -2.13334983 6.31650271 1.58764379
Te -2.68812221 6.65063267 12.27489892
Te -4.53989810 10.12762637 1.31643074
Te -4.86426042 10.00173507 11.97982756
Te -6.62619910 13.73763835 1.24178794
Te -6.88044037 13.71588394 11.74599249
Te 4.33973807 2.81394947 2.12553412
Te 3.91197625 2.96303230 12.56098587
Te 2.01615140 6.37845501 1.72019336
Te 1.64273014 6.43659032 12.56267544
Te 0.05304541 10.17283977 1.57175013
Te -0.60676124 10.35524999 12.23861156
Te -2.45185837 13.72854442 1.85814587
Te -2.67289218 13.72105339 12.11632721
Te 8.41388261 2.69510818 2.49039355
Te 8.08490368 3.02297425 12.70408398
Te 6.40046519 6.36925938 2.07719543
Te 5.72935735 6.47105288 12.77447894
Te 4.09382187 9.97929996 1.79822756
Te 3.68762716 10.03224168 12.69153464
Te 2.05996701 13.58302399 1.90038565
Te 1.85068773 13.85640295 12.33030590
Te 12.66287560 2.58963461 2.65546043
Te 12.26388096 3.00468895 12.95246420
Te 10.74682422 6.24214079 2.32717823
Te 10.37554585 6.55515032 12.52856869
Te 8.38689369 10.17129716 2.19714794
Te 8.13702855 10.27636053 12.78166714
Te 6.33740508 13.86620747 1.81551050
Te 5.90027949 14.39568257 12.49349100
Te 8.13642969 15.17409598 5.41004125
Te -0.74647860 0.46763597 15.77535878
Te -2.25773453 3.78767458 5.19197218
Te 14.33336147 4.31555845 16.54014511
Te -4.35596724 7.31538486 4.89760320
Te -4.87674388 7.73223583 15.86230851
Te 10.42187011 11.18080445 5.56951195
Te 9.97376313 11.35912438 16.18819195
Te 4.03205562 0.20084728 5.57963166
Te -5.10310530 14.97365477 15.38948136
Te 2.03600183 3.98366742 5.41457009
Te 1.41393370 3.75894424 15.85412077
Te -0.30065470 7.46506879 5.08923437
Te -0.70130260 7.64524258 15.97957165
Te -2.62801970 11.32667829 5.11561387
Te -2.86306640 11.51735212 15.82534849
Te -0.32042902 14.99478071 5.08219057
Te -0.52294383 15.04253055 15.56948401
Te 6.36597892 4.14776617 5.80157094
Te 5.70835930 3.87103809 16.31445730