192
Time=60000.00000005 pbc="T T T" Lattice="17.51479249 0.04269906 -0.26193533 -8.74164069 14.87413113 -0.05262463 0.33779412 0.40753537 21.07871002" energy=-818.27499339 virial="-47.61663513 2.33872596 -4.99739171 2.33872596 -23.15376463 1.76949733 -4.99739171 1.76949733 -24.83083266" stress="-0.00718362 0.00042523 -0.00090863 0.00042523 -0.00273577 0.00032173 -0.00090863 0.00032173 -0.00304070" Properties=species:S:1:pos:R:3
Ge 8.69799458 15.03533412 10.20883132
Ge 8.54538272 14.81477689 0.01331238
Ge -1.88591965 3.92927175 11.01443500
Ge 14.88567488 3.54165661 -0.21794839
Ge -4.16443889 7.62765777 10.41449845
Ge 13.10043718 7.10071625 -0.09662345
Ge -6.17846018 11.23322611 10.62783922
Ge -6.53179839 11.23951147 -0.03250498
Ge -4.60280150 14.99007076 10.22866444
Ge -4.14703022 14.81285378 0.49347220
Ge 2.30658096 3.69416391 10.68432990
Ge 2.07284132 3.61308270 0.18810905
Ge 0.00322753 7.63900194 10.58238294
Ge -0.12687632 8.03111325 0.17126189
Ge -1.70769029 11.35802928 10.61598311
Ge -2.02840173 11.51978972 20.91464506
Ge 0.27219305 15.05705064 10.43166444
Ge 6.56962698 4.13588327 10.77384554
Ge 6.37183107 3.78104087 0.28822228
Ge 4.64648397 7.59154881 10.41130704
Ge 4.32191418 7.51006118 0.21354600
Ge 2.40694170 11.11349925 10.67539779
Ge 2.30085212 11.09549380 0.28552852
Ge 13.29365733 0.39776270 10.46468803
Ge 4.33695437 14.89494925 0.03288820
Ge 11.16109803 4.04808680 10.12918690
Ge 10.80126341 3.32232849 0.15783362
Ge 9.11205750 7.50950304 10.61066782
Ge 6.98719769 11.34680654 10.63022326
Ge 6.61399701 11.14376282 0.10809261
Ge 1.99765425 1.16512675 3.55361830
Ge 2.41184257 1.10976704 14.41880316
Ge -0.12724991 4.88769716 3.63681170
Ge 0.37856417 4.89408935 14.12584517
Ge -1.89065139 8.63175969 3.53836414
Ge -1.77588372 8.59671218 14.37950598
Ge -4.05014984 12.14716300 3.43493717
Ge -3.70805493 12.59499856 14.04989351
Ge 6.59208684 0.95118749 3.72261893
Ge 6.82524041 1.51660080 14.02768206
Ge 4.15038818 5.31475561 3.75710560
Ge 4.58795066 5.34928869 14.10459963
Ge 2.24143729 8.95101557 3.44522663
Ge 2.50897388 8.98220422 13.96098604
Ge 0.29031531 12.51563654 3.49490587
Ge 0.18227842 12.43552852 14.07920262
Ge 10.76095882 1.11368771 3.44735005
Ge 10.80539206 1.62030894 14.08906648
Ge 8.74123478 5.00050228 3.23095755
Ge 8.97688472 5.06844445 14.12472786
Ge 6.62476197 8.80354412 3.55913518
Ge 6.51760758 8.85437966 14.02005856
Ge 4.29785238 12.87869449 14.07389549
Ge 15.51748274 1.17078589 3.71431150
Ge 15.43039412 1.72684337 14.16916531
Ge 12.98991935 5.18900425 3.21772195
Ge 13.35047210 5.11450318 13.98685155
Ge 11.04574653 8.79843308 3.26115412
Ge 11.62092363 8.90303576 13.86356725
Ge 8.89639844 12.71832068 3.40207986
Ge 8.75528237 12.34190010 14.02676295
Ge 0.12049318 2.90358643 17.88104246
Ge -1.95322314 6.57160003 6.81374156
Ge -1.82958392 6.46350307 17.86589755
Ge -4.10346740 10.12960758 6.87513219
Ge -4.19464041 10.11104179 17.79906971
Ge -6.40303649 13.48299725 7.08486066
Ge -6.28413196 14.00333976 17.85161832
Ge 4.67628675 2.59748887 6.64119747
Ge 4.71714738 2.80707667 17.92318622
Ge 2.32123260 6.10350158 7.12878697
Ge 2.50364141 6.46248469 17.75343253
Ge 0.12365530 10.32270022 18.09399016
Ge -1.87590707 13.77874274 6.90005308
Ge -1.80783283 14.09774527 17.78143880
Ge 8.99323075 2.54441373 6.90701958
Ge 8.77951429 2.88716491 17.62325901
Ge 6.29000914 6.64752823 7.05615715
Ge 6.82679454 6.67470725 17.68377447
Ge 4.62128465 10.26941456 7.29860057
Ge 4.72863041 10.19966666 17.81522035
Ge 2.45135213 13.60313538 7.26076074
Ge 2.62782391 13.76475996 17.45816486
Ge 13.15017612 2.70772710 6.88906851
Ge 13.29133202 2.64320757 17.66733013
Ge 11.08605919 6.35800207 6.84203004
Ge 10.78126852 6.18031020 17.68130803
Ge 8.88842535 10.07007734 6.53840961
Ge 9.55823583 10.19373540 17.25100439
Ge 6.55068394 13.93043331 6.83803939
Ge 6.61109302 13.90675800 17.38523987
Te -0.00411623 14.75348619 -0.02366965
Te 8.49065973 7.40491382 -0.03650071
Te 4.29597406 12.56267736 3.49423160
Te 0.14581946 2.72539344 7.22860077
Te 0.28559582 10.18110841 7.05388429
Te 2.24954825 1.23945992 8.80789275
Te 2.60866785 1.56013212 19.22431376
Te 0.07565393 5.31053330 9.00959337
Te 0.46704498 5.36390810 19.39738840
Te -2.27214303 8.93017112 8.73356328
Te -2.05150507 9.04329820 19.53022486
Te -4.08134085 12.51299407 8.96922534
Te -4.12708961 12.87636939 19.40000527
Te 6.54004005 1.67735940 8.69222260
Te 6.90398232 1.57188211 19.32702981
Te 4.45598297 5.32516947 8.82026107
Te 4.84897829 5.24292242 19.37520478
Te 2.57319845 8.89163340 8.84657839
Te 2.30044548 8.77140425 19.47739888
Te 0.30532264 12.79034734 8.99534074
Te 0.23777920 12.74072796 19.44041985
Te 11.14867977 1.44205363 8.62369247
Te 11.20627694 1.70076350 19.22829750
Te 8.90292280 5.45034708 8.74155985
Te 8.96128869 4.94302222 19.37508220
Te 6.88437506 9.06332620 8.69845581
Te 6.74210992 9.03092171 19.30403235
Te 4.63908446 12.75079362 8.62521659
Te 4.58572051 12.76004775 19.01011263
Te 15.41846321 1.66201413 8.92194730
Te 15.79602870 1.80977707 19.18648103
Te 13.31181996 5.27095217 8.42476748
Te 13.56564382 5.24141043 18.98523049
Te 11.11099134 8.84314968 8.64816585
Te 11.18827360 8.98458085 19.09866995
Te 8.82860491 12.68464767 8.86102450
Te 8.90895203 12.92809008 19.11443219
Te -0.00171278 2.50684471 1.84935356
Te 0.18641706 2.59489157 12.50028381
Te -2.09443387 6.15310005 1.48659533
Te -1.78654427 6.63911035 12.47871970
Te -4.25592354 9.91451230 1.75613014
Te -3.93386324 10.18063896 12.63852172
Te -6.47372759 13.66681827 1.71625243
Te -6.38267285 13.86163843 12.32514821
Te 4.52943463 2.35195544 2.18374452
Te 4.61291580 2.88557882 12.26340284
Te 2.12843183 6.35389184 1.99950993
Te 2.51091996 6.43561613 12.24787047
Te 0.18371630 10.24486025 1.89460677
Te 0.56524919 10.22781724 12.21668316
Te -2.18014614 13.55566873 2.04350046
Te -1.95660751 13.78638660 12.08220154
Te 8.81435270 2.48540186 1.76046590
Te 9.10548024 2.84499947 12.26652618
Te 6.40894263 6.15680615 1.86215124
Te 7.15567102 6.63882619 12.20364664
Te 4.37342676 9.86443145 1.63584165
Te 4.76531193 10.45944001 12.40612967
Te 2.15764388 13.56180778 1.49910116
Te 2.35345760 14.11314175 12.40656486
Te 13.14909112 2.44599440 1.59612388
Te 13.21306281 3.03852085 12.24207634
Te 10.89717417 6.15582280 1.48067864
Te 11.15190876 6.41612206 12.28338634
Te 8.67691884 10.23491988 1.56967824
Te 9.01466137 10.19890089 12.18315474
Te 6.54259493 13.89346297 1.73379783
Te 6.82151488 13.90587438 12.15949432
Te -8.53966487 14.94270648 5.31250875
Te -8.24649990 15.18511022 16.11529062
Te 15.30807219 3.92775852 5.16950320
Te -1.89210846 4.12432677 15.86947231
Te 13.03485410 7.32851467 4.96187383
Te 13.18416251 7.72010399 15.78512335
Te -6.38023911 11.27640126 5.13888719
Te -6.22773819 11.74818750 15.99514039
Te -4.32100710 14.91141516 5.37541715
Te 4.85238002 0.54377840 16.02995319
Te 2.27274441 3.78045196 5.26090772
Te 2.66820120 3.83193812 15.89668487
Te 0.03847206 7.74584352 5.29471051
Te 0.71127389 7.81768216 15.61420738
Te -2.06784722 11.21904012 5.03655150
Te -1.82477139 11.45985958 15.73477971
Te 0.13825171 14.91887395 5.28596452
Te 0.13275447 15.16409175 15.53559453
Te 6.72843748 4.06513646 5.03379344
Te 6.75115316 3.99328941 15.73386560
Te 4.50503268 7.87059953 5.20683980
Te 4.66617587 7.81839270 16.02939530
Te 2.18859091 11.39211384 5.37893100
Te 2.46698030 11.40632244 15.73090941
Te 13.32640701 0.23309472 5.37669316
Te 13.24831325 0.40891311 15.78779617
Te 10.82870641 3.86609660 5.09390906
Te 11.28744790 4.03913612 15.66488188
Te 8.81836831 7.68565867 4.96835992
Te 9.01834171 7.89371492 15.92333980
Te 6.85326536 11.45995966 5.13622177
Te 6.62377029 11.60227958 15.58924743
192
Time=70000.00000007 pbc="T T T" Lattice="17.10571694 0.00387991 -0.40736451 -8.70414717 14.86487932 0.17396076 0.35888958 0.06161572 21.26011611" energy=-817.68275607 virial="-4.31971378 3.17268381 4.41170643 3.17268381 7.74969936 1.91406414 4.41170643 1.91406414 -12.08411334" stress="0.00070044 0.00058674 0.00081588 0.00058674 0.00293248 0.00035398 0.00081588 0.00035398 -0.00073547" Properties=species:S:1:pos:R:3
Ge 8.44977891 14.76839925 10.80118610
Ge 8.17751333 14.63935169 -0.00300167
Ge 14.88355653 3.85844330 10.65350647
Ge -2.01571396 3.73100760 0.42865943
Ge -4.24431315 7.67968463 10.74516850
Ge -4.11029890 7.12754634 0.10796258
Ge -6.04050894 11.41214329 11.37553200
Ge -6.41052991 11.22153277 0.53787616
Ge -4.35878017 14.88819794 10.95968447
Ge -4.26589508 14.86314834 0.17257339
Ge 2.28271587 3.62328525 10.70804126
Ge 2.23398802 3.69924578 0.39274336
Ge 0.19950670 7.07407606 10.79421613
Ge -0.00755322 7.50148014 0.24675164
Ge -1.99410691 10.87332648 10.69928090
Ge -2.24686847 10.94145750 0.36059796
Ge -0.21430910 14.67435755 10.96262679
Ge 6.80680339 3.78161455 10.69800053
Ge 6.39235740 3.79414279 -0.01441561
Ge 4.56359897 7.57110989 10.49007132
Ge 4.18154554 7.36094801 0.22008053
Ge 2.19043278 10.88293227 10.67254258
Ge 2.06525793 10.94490910 0.11388062
Ge 4.16920099 14.71700397 10.44887711
Ge 3.93718925 14.83709975 0.03465178
Ge 10.89088578 3.54099593 10.42933869
Ge 10.82844576 4.07981450 0.04973391
Ge 8.89933260 7.39457964 10.71985358
Ge 6.55718889 11.03272677 10.46995311
Ge 6.72000023 11.13402163 20.85922673
Ge 1.95226684 1.42127100 3.86093730
Ge 2.62127075 1.37875337 14.28070283
Ge 0.40436788 5.03013390 3.90994670
Ge 0.12242655 4.59099898 14.18156762
Ge -2.00404387 8.60910261 3.86401555
Ge -1.93697051 8.43463707 14.51919743
Ge -4.53488872 12.24004845 3.58681030
Ge -4.13544117 12.32352443 14.34817769
Ge 6.32645910 0.84060141 3.71766301
Ge 6.85770798 1.12993184 14.24888165
Ge 4.34602768 4.67066602 3.45296583
Ge 4.49367963 4.95145396 14.06177660
Ge 2.13018506 8.46164306 3.65630402
Ge 2.39451785 8.35002996 14.17151907
Ge -0.07967064 12.41839329 3.96023702
Ge 0.16934643 12.30278911 14.28327871
Ge 10.71874104 1.84188551 3.57462116
Ge 11.07448916 1.09399606 14.18674099
Ge 8.45735282 4.75592875 3.66595137
Ge 8.72350445 5.02666575 14.03989425
Ge 6.44471133 8.74734740 3.59227553
Ge 6.91385926 8.44705119 14.10494478
Ge 4.24036546 12.20971312 14.14040539
Ge 14.81962529 1.01855335 3.33578499
Ge 15.32361639 1.09305940 13.70781218
Ge 12.82042491 4.83827582 3.48596045
Ge 13.12568505 4.94819125 14.12751702
Ge 10.37665588 8.55742228 3.44026582
Ge 10.85414630 8.40676589 14.15879382
Ge 8.41924396 12.83218196 3.53376126
Ge 8.92576776 12.45820198 14.41983250
Ge 0.45763878 2.51031865 17.90467857
Ge -2.17464401 6.15939895 6.97921459
Ge -1.83389564 6.01954718 17.94985693
Ge -4.43508759 10.03429765 7.15837809
Ge -4.02822613 9.87230001 18.02493925
Ge -6.35946085 13.67130892 7.32581221
Ge -6.01223068 13.70256903 18.01885236
Ge 4.24040112 2.22337972 7.22682179
Ge 4.62614393 2.40630977 17.80103725
Ge 2.29036998 6.15484626 7.42024057
Ge 2.43804469 6.25633110 17.95586841
Ge 0.20908340 9.83569508 17.92202962
Ge -2.02569642 13.57235069 7.25663311
Ge -1.81836241 13.65507647 17.98644995
Ge 8.55419519 2.20191509 7.34999034
Ge 9.29005747 2.53238875 17.51439786
Ge 6.20994847 6.19904450 6.88107321
Ge 6.45727389 6.11285666 17.74229646
Ge 4.63591207 9.93597104 7.40622708
Ge 4.46888040 9.80110476 17.51637605
Ge 2.03423318 13.39290814 6.98580658
Ge 2.20111601 13.75036283 17.99137326
Ge 12.99266292 2.02147140 6.75063253
Ge 12.98591328 2.43022588 17.51557049
Ge 10.51196437 6.48326032 6.87246925
Ge 10.59909129 6.29869728 17.85753046
Ge 8.60215771 10.02748262 6.69487891
Ge 8.51203032 9.68003256 17.78995725
Ge 6.24654932 13.49618353 7.09245161
Ge 6.58528787 13.63974074 17.93398245
Te -0.09600592 14.57564823 0.09257585
Te 8.59098042 7.38847174 0.14771704
Te 4.17570412 12.28912786 3.39847914
Te 0.22357980 2.57941038 7.62273370
Te -0.11230229 9.89882303 7.07787985
Te 2.18537277 1.19039466 9.07387868
Te 2.51921891 1.28937795 19.44487994
Te 0.19189024 5.13650678 9.17079576
Te 0.41914946 5.12892325 19.63283021
Te -2.20043300 8.62087056 9.04855432
Te -1.80396642 8.75612055 19.81914344
Te -4.28619984 12.58849815 9.14424276
Te -3.94177342 12.49832405 19.61140971
Te 6.39897768 1.25277686 8.80221270
Te 6.80808097 1.46565005 19.50854722
Te 4.35667433 5.05673763 8.83990481
Te 4.45413065 4.86269098 19.53985640
Te 2.50666024 8.58892448 8.81669659
Te 2.13755216 8.62185437 19.46477115
Te -0.04602281 12.38129064 9.01101366
Te 0.29290894 12.32731937 19.49348647
Te 10.82144199 1.27777880 8.72379894
Te 11.02662313 1.59409648 19.33745295
Te 8.56392166 5.31779601 8.96075261
Te 8.68417123 4.80642481 19.16546371
Te 6.72685182 8.72656658 8.98089312
Te 6.38310222 8.62143833 19.29373558
Te 4.03954238 12.43323102 8.66244383
Te 4.50078414 12.69631270 19.41113273
Te 14.92469764 1.17619685 8.84016109
Te 15.14480930 1.39529070 18.98717700
Te 12.77735288 5.08224753 8.92939127
Te 12.97792638 4.95763831 18.98206808
Te 10.54554206 8.65570412 9.08278346
Te 11.13999615 8.83044609 19.51393754
Te 8.38221914 12.58678242 8.82133138
Te 8.68799155 12.48882759 19.35465074
Te -0.01818581 2.50658219 1.96646851
Te 0.41519448 2.35935913 12.46852641
Te -2.09388119 6.16633224 1.78635480
Te -2.10361699 6.28385463 12.59250696
Te -4.39938492 9.89577909 1.94526522
Te -4.21285175 9.88533700 12.86412591
Te -6.62048301 14.05035748 1.87872184
Te -6.11832532 13.75899323 12.68570268
Te 4.26242673 2.66825609 1.74903871
Te 4.52543551 2.66693636 12.47514079
Te 1.76125361 6.26251579 1.76777233
Te 2.47922391 6.32537404 12.27204912
Te 0.18214642 10.10913878 1.90149453
Te 0.10979139 9.98231482 12.44557396
Te -2.40587747 13.62213266 2.02083511
Te -2.24446560 13.67307121 12.55836940
Te 8.51526800 2.64880298 1.71407965
Te 8.61820038 2.52483269 12.40505917
Te 6.53762151 6.41779555 1.96713550
Te 6.48821281 6.21577769 12.23346773
Te 4.29613908 9.68203379 1.60206006
Te 4.43657909 10.07014885 12.31095281
Te 2.05068810 13.46072639 1.80465695
Te 2.01920282 13.71045783 12.34179704
Te 12.87668203 2.76735055 1.65940756
Te 13.13665686 2.26799905 12.18422970
Te 10.80277358 6.40565458 1.92058404
Te 11.09152458 6.25501606 12.47092032
Te 8.32284011 10.11801746 1.72307293
Te 8.61448442 10.23458899 12.38775725
Te 6.39419967 13.64118235 1.68197950
Te 6.31152721 13.64676544 12.26919886
Te 0.12054679 0.16338431 5.46667667
Te 0.46345794 0.15809306 15.85270650
Te 14.87707364 3.63301641 5.06295618
Te -1.71418299 3.70648127 15.86443649
Te -4.19415245 7.78242884 5.56731142
Te -4.05307126 7.61008478 16.25599243
Te -6.32251423 11.24387753 5.67897875
Te -6.03537018 11.44819085 16.25090385
Te -4.21899981 14.78178897 5.81255580
Te 4.53462148 0.09875239 16.14791018
Te 2.35005516 3.88868673 5.34510425
Te 2.31906033 3.66525187 16.04294618
Te 0.00663988 7.24021269 5.48943401
Te 0.33648676 7.45145833 15.98431442
Te -2.49590904 11.17922968 5.52008105
Te -2.05053473 11.42109206 16.03343958
Te -0.19126002 14.75751151 5.48262829
Te 9.00684916 0.07177914 15.65813584
Te 6.34402578 3.78396386 5.43484796
Te 6.64020270 3.69385114 15.79026146
Te 4.49883631 7.84887662 5.32275925
Te 4.33638520 7.48479266 15.77815539
Te 2.06602280 11.19300647 5.56559954
Te 2.21759828 11.21143512 16.20775285
Te 4.08055803 14.85753091 5.34892546
Te 13.03114825 0.12614032 15.59527500
Te 10.67485248 3.95701249 5.38041237
Te 10.86502835 3.80493758 15.48047070
Te 8.41120128 7.80686966 5.52594457
Te 8.77415010 7.39711811 15.79468887
Te 6.54145973 11.20865103 5.26038923
Te 6.49394770 11.08921817 15.96822393
192
Time=80000.00000008 pbc="T T T" Lattice="17.20095692 0.16720961 -0.63058415 -8.67652514 14.91765978 0.42209313 0.73364619 -0.19465694 21.21917262" energy=-817.27755392 virial="-18.28141153 -8.47075782 9.91711840 -8.47075782 -26.54542935 -0.75972236 9.91711840 -0.75972236 -26.26663400" stress="-0.00185539 -0.00154475 0.00180851 -0.00154475 -0.00336244 -0.00013854 0.00180851 -0.00013854 -0.00331160" Properties=species:S:1:pos:R:3
Ge 17.42544560 0.08494083 9.89448770
Ge 8.33064351 15.07161227 0.06936208
Ge -1.64688218 3.60635118 10.97430466
Ge 14.73479023 3.67940409 -0.25399274
Ge 13.16606002 7.53003189 10.19237037
Ge -3.99805733 7.50059521 0.47561976
Ge -6.00481351 11.52497794 11.08024174
Ge 10.47226474 11.00453224 -0.19873416
Ge 5.29204506 0.21788019 10.65060368
Ge -3.77134304 14.57950625 21.39166026
Ge 2.69484239 3.67966264 10.61232260
Ge 2.04259890 3.53112587 0.24798518
Ge 0.30955198 7.48083982 10.60090518
Ge 0.00778600 7.75490792 0.13164055
Ge -2.13180474 11.03230891 10.98118138
Ge -2.19440855 11.34718115 0.67438838
Ge 8.94376956 0.17695523 10.41426413
Ge 6.98742414 3.94961657 10.54621656
Ge 6.21699129 3.62274722 0.21180681
Ge 4.21808300 7.55154161 10.86327844
Ge 5.23174195 7.25507878 21.08339518
Ge 2.06093478 11.45376802 10.31530444
Ge 1.70334568 11.15220639 0.27109923
Ge 13.18014505 0.28099283 10.00002120
Ge 3.95825586 14.84846995 -0.03318806
Ge 11.05624185 3.83778828 10.27968180
Ge 11.44517289 3.55412795 20.84879104
Ge 9.13701524 7.56579422 10.10222734
Ge 6.56362199 11.52696566 10.67089833
Ge 6.30941884 11.11567594 -0.05528711
Ge 2.14372104 1.11230144 3.32347402
Ge 2.66646167 1.37370362 14.12592784
Ge 0.15199263 5.18722741 3.66791955
Ge 0.46168008 4.88377348 14.25267612
Ge -2.15609346 8.72739632 4.09605095
Ge -1.66018341 8.60657949 14.16339296
Ge -4.08906117 12.31003007 4.08228686
Ge -3.81103017 12.23153588 14.44388176
Ge 6.64185687 1.47329045 3.29505402
Ge 6.90929032 1.31730133 13.90575156
Ge 4.24144416 4.93174524 3.53568906
Ge 4.75347226 5.24717936 14.07908262
Ge 2.17397823 9.00975170 3.79378376
Ge 2.46755309 8.75785293 14.51428499
Ge 0.16660906 12.45328395 3.68751731
Ge 0.66698242 12.16880644 14.19020113
Ge 10.78476615 1.08370243 3.28248063
Ge 11.19817615 1.23828072 13.77569308
Ge 8.96265815 4.64255497 2.96408135
Ge 9.01903709 5.24856079 13.87556138
Ge 6.45971223 8.65601695 3.34265456
Ge 6.75193895 8.89865760 14.11686598
Ge 4.53851351 12.56995431 14.29835119
Ge 15.10739096 1.17724914 2.82449529
Ge 15.46271238 1.51844906 13.84480575
Ge 13.21395230 5.02777772 3.36595216
Ge 13.32662705 4.88342129 13.69821906
Ge 10.71732370 8.42083695 3.52588115
Ge 10.89647618 8.92129991 13.62542630
Ge 8.39732323 12.45942253 3.14507842
Ge 9.14814903 12.50397365 13.93718074
Ge 0.92515403 2.34051840 17.75939359
Ge -2.25054181 5.67559708 7.54701976
Ge -1.84192802 6.16543291 17.95388905
Ge -4.22816880 10.10743510 7.38931381
Ge -3.86982392 9.56917411 18.15874541
Ge -6.39930589 13.93268947 7.61230711
Ge -5.86944203 13.32718015 18.26779477
Ge 4.43604679 2.62682636 6.88612021
Ge 5.04055613 2.01809734 17.67209806
Ge 2.35469394 6.32474795 7.19252480
Ge 2.31294634 6.01742549 18.03173641
Ge 0.37516171 10.01072540 17.55826632
Ge -2.18644386 13.76229374 7.35145395
Ge -1.70989763 13.52045051 17.92835778
Ge 8.68859524 2.20315881 6.55206115
Ge 9.12577471 2.72046697 17.23014987
Ge 6.48704798 6.45471890 6.91556975
Ge 6.89406035 6.03365607 17.88529075
Ge 4.45028262 9.74852658 7.01021976
Ge 5.19347334 9.43484175 17.80253966
Ge 2.19930591 14.00675588 7.06954298
Ge 2.60639197 13.76309941 17.71693470
Ge 13.08095066 2.56925337 6.51573879
Ge 13.45130936 2.45302962 17.57506200
Ge 11.00362906 6.25755578 6.86453606
Ge 11.45067818 6.00136415 17.08509090
Ge 8.58367393 9.88472529 7.01473627
Ge 9.43691450 9.97304839 17.53067117
Ge 6.55870401 13.62244621 7.13076341
Ge 6.79287017 14.02652000 17.96743447
Te -0.29556122 14.81872819 0.39351184
Te 8.62291200 7.24787455 -0.03999028
Te 4.23128352 12.75874922 3.69949491
Te 0.45171371 2.58344747 7.27698576
Te 0.25592053 10.16033518 7.21428038
Te 2.80086796 1.14695115 9.22392083
Te 2.69050559 0.96752771 19.66393583
Te 0.39384287 5.03748802 9.10464062
Te 0.43355165 4.81229700 19.81073106
Te -2.00376931 8.55440325 9.21217849
Te -1.40739993 8.66881013 19.73410584
Te -3.80759397 12.46181249 9.36371033
Te -3.55269746 12.36841832 19.72263248
Te 7.02481938 1.33866852 8.91126909
Te 7.05130066 1.29076555 19.40316771
Te 4.79633420 4.83369072 8.97764176
Te 4.87302286 4.84910908 19.56564019
Te 2.46501229 8.76761122 9.03015261
Te 2.76866251 8.72583317 19.55035001
Te 0.07750093 12.76122489 8.95139668
Te 0.79719715 12.48851705 19.48010362
Te 11.03619268 1.31004108 8.55132834
Te 11.37500016 1.15107078 19.35372893
Te 9.16750770 4.96251661 8.68242861
Te 9.06216641 4.63261168 19.49267365
Te 6.82008195 8.59063991 9.08266226
Te 7.22919953 8.58075325 19.32328058
Te 4.52522538 12.47301831 9.10307497
Te 4.93114857 12.16760083 19.48019992
Te 15.41402607 1.05756832 8.26778943
Te 15.83269945 1.27334014 19.31118072
Te 13.18346085 4.84199883 8.67728460
Te 13.42138980 4.70409222 19.16056128
Te 11.07883871 8.67610538 8.58915607
Te 11.39711883 8.65468280 19.25279391
Te 8.90081197 12.51487088 8.76071780
Te 9.35182837 12.35344460 19.40638625
Te -0.08217254 2.58664017 1.98806301
Te 0.53245608 2.37353978 12.48689504
Te -2.01187198 6.02997996 2.08744747
Te -1.64590134 6.01807892 12.58979568
Te -4.21792262 9.90693433 2.22207788
Te -3.85176214 9.54247478 12.58423659
Te -6.54522642 13.80755235 2.05053156
Te -5.79717962 13.42724770 12.90637899
Te 4.30123594 2.65543548 1.83491054
Te 4.78504049 2.42349048 12.42698350
Te 2.37931048 6.32693904 1.91800110
Te 2.63204624 6.07311612 12.64350790
Te 0.00092385 9.98505467 2.10477854
Te 0.44278095 9.91367254 12.61541246
Te -2.35045361 13.66557745 2.42776736
Te -1.81981677 13.60513835 12.84722246
Te 8.62609535 2.59891756 1.49053972
Te 9.05650991 2.38732182 12.25466368
Te 6.32409555 6.10140928 2.03086570
Te 6.80927032 6.30876858 12.22750735
Te 4.48292869 9.80695108 1.77432320
Te 4.63554262 10.11343118 12.38479311
Te 2.05816876 13.54280268 1.98070989
Te 2.73624681 13.99396537 12.61811703
Te 12.87276154 2.57863503 1.58140205
Te 13.44711643 2.58807611 12.08060773
Te 10.90185191 6.24813789 1.49938712
Te 11.12971279 6.25075895 12.22384302
Te 8.83367263 10.06314520 1.79865122
Te 9.08249455 10.04459569 12.06896590
Te 6.34038073 13.71657231 1.87830877
Te 6.96166502 13.71089687 12.43788425
Te -8.39163178 14.81899688 5.90957035
Te 0.62818082 -0.02161254 16.02027981
Te 15.19525361 3.82215954 5.05271892
Te 15.30154693 3.86809402 15.69243604
Te -4.15886677 7.51259733 5.60900983
Te -3.74737265 7.42681706 16.43068326
Te -6.29992932 11.29725096 6.05619780
Te 11.22366270 11.12954594 15.54943224
Te 4.42936938 0.24347672 5.45694421
Te -3.86773159 14.45676265 16.48501065
Te 2.28913994 3.82441208 5.41214214
Te 2.43195015 3.72612693 15.92364839
Te 0.17655762 7.54578304 5.55999029
Te 0.55488003 7.13814110 16.04427266
Te -2.05906302 11.28992761 5.74619256
Te -1.52264275 11.17446022 16.08570447
Te 0.17717834 14.89043450 5.44150406
Te 9.11840733 0.23800418 15.54833925
Te 6.43877920 3.82971102 5.07844166
Te 6.87285292 3.54726830 15.70462195
Te 4.29102062 7.25703089 5.48965408
Te 4.69833785 7.33047619 15.97905998
Te 2.41907441 11.38479683 5.84917979
Te 2.80309568 11.17421730 16.07679213
Te 13.10801655 0.29842692 5.15403543
Te 13.62999815 0.22697702 15.74167942
Te 10.85873393 3.43544659 5.12631077
Te 11.44158239 3.56783690 15.83698814
Te 8.76935847 7.45822787 5.44914117
Te 9.12653611 7.43348312 15.59164157
Te 6.79900818 11.21452806 5.45217386
Te 7.12012566 10.96776748 15.92466995
192
Time=90000.00000003 pbc="T T T" Lattice="17.32219175 -0.02405881 -0.54459079 -8.68611746 14.93261507 0.47935886 0.87015663 0.01213261 21.07004903" energy=-816.69425452 virial="-13.36099474 9.55726691 -10.50865714 9.55726691 -8.69411757 -9.15746726 -10.50865714 -9.15746726 -9.74171740" stress="-0.00096298 0.00175176 -0.00192615 0.00175176 -0.00010758 -0.00167848 -0.00192615 -0.00167848 -0.00029959" Properties=species:S:1:pos:R:3
Ge 17.59084028 0.05831989 10.04540882
Ge -7.52293724 14.79762752 21.40621593
Ge 15.34094460 3.75785971 10.22762395
Ge -2.09638934 3.91427864 0.30244288
Ge -4.04196342 7.72591064 10.89008263
Ge 12.78651118 7.44247966 -0.04150346
Ge -6.12541716 11.56848140 10.92716066
Ge -6.16927236 11.24609055 0.36426119
Ge -4.27046620 14.92304734 10.75617260
Ge -4.17417023 14.55046382 0.54978401
Ge 2.38618706 3.90258737 10.59375501
Ge 2.45817516 3.38493174 0.25933056
Ge 0.54380630 7.62192759 10.64629372
Ge 0.21751206 7.45821310 0.26696443
Ge -1.88527130 11.04563873 10.45195913
Ge -1.97221029 11.32834529 0.61161708
Ge 0.13906417 14.26898156 10.89622370
Ge 6.59782025 3.53471164 10.67629060
Ge 6.64622220 3.61961153 -0.14765686
Ge 4.63120265 7.61066330 10.67233190
Ge 4.32219491 7.94796613 0.17915367
Ge 2.60655089 11.37800730 10.60705158
Ge 2.28273021 11.48634097 0.31096510
Ge 13.05852601 0.04531588 10.26624375
Ge 13.26722959 0.23209735 -0.05912100
Ge 11.17185704 4.03471211 10.43662368
Ge 11.55129261 3.86684415 20.53472465
Ge 9.17103383 7.57721584 10.94978623
Ge 6.80154593 11.31025402 10.49306882
Ge 6.67625799 11.14500416 0.30082777
Ge 2.36810581 1.42924596 3.56870185
Ge 2.62516956 1.56203399 14.10120453
Ge 0.50185688 4.84969057 3.93205979
Ge 0.64697531 5.14874028 14.48796010
Ge -1.83013176 8.95357551 3.86266312
Ge -1.62384415 8.74175797 14.08337757
Ge -3.77742577 12.48297834 3.97665157
Ge -3.83454841 12.56390343 14.93063413
Ge 6.83079320 1.42179324 3.41232123
Ge 7.13604143 1.12795976 13.93667288
Ge 4.47063348 5.31325454 3.60389601
Ge 4.84238909 4.94008122 13.88352956
Ge 2.48843985 9.00566010 4.02741074
Ge 2.77780635 8.94114064 13.94025538
Ge 0.39581419 12.61107496 3.85273783
Ge 0.57217298 12.75072363 14.32408009
Ge 11.12035799 1.01266936 3.45285321
Ge 11.30436023 1.47836670 13.68539582
Ge 8.78825971 4.70439762 3.20193938
Ge 9.10148184 4.87608933 13.91986447
Ge 6.59765540 8.82186083 3.71812567
Ge 6.94314597 8.49554817 13.92177079
Ge 4.99024434 12.92717726 14.52420297
Ge 15.34668811 1.60130985 3.40219621
Ge 15.76231083 1.36186032 13.80745331
Ge 13.30569106 5.10334867 3.25036145
Ge 14.06501882 5.13059391 13.44449773
Ge 10.82651538 8.81711877 3.27216671
Ge 11.64172625 8.75818149 14.04096080
Ge 8.75139657 12.56820093 3.73706489
Ge 8.98283630 12.27146614 13.94252882
Ge 0.94521602 2.34988622 17.84219401
Ge -1.73140975 6.35573849 7.21740955
Ge -1.16151384 6.07600106 17.90464160
Ge -3.98658413 9.96565935 7.47896923
Ge -3.46915912 9.66221730 18.25439150
Ge -6.42765422 13.79465238 7.47504354
Ge -5.84293914 13.67567363 18.19917925
Ge 4.49821463 2.51461449 7.16911095
Ge 5.49430416 2.44990889 17.95306347
Ge 2.46220919 6.23933100 7.23660452
Ge 3.05262335 6.08068603 17.97659612
Ge 0.38456777 9.82904293 17.85540805
Ge -1.90917923 13.86196093 7.32246149
Ge -1.12858079 13.14673670 17.79836833
Ge 8.88425625 2.67905942 6.77982213
Ge 9.27764746 2.72196058 17.44627878
Ge 6.82041439 6.18157401 6.85345433
Ge 7.00654002 6.01505506 17.30813828
Ge 4.73256978 10.02147733 7.39271618
Ge 5.20513374 9.67477325 17.70088905
Ge 2.26603748 13.92483685 7.17844798
Ge 3.12396952 13.48445256 17.89663220
Ge 13.13032335 2.37673208 6.87158528
Ge 13.44206035 2.74130299 17.32147683
Ge 10.96557557 5.90268649 6.83893710
Ge 11.66726407 6.15428657 17.43829985
Ge 9.03908616 9.72206523 6.96264998
Ge 9.09515388 10.14479293 17.60995428
Ge 6.69896606 13.79071142 7.37859674
Ge 6.91185772 14.00376366 17.90975758
Te 1.11257021 14.86941631 21.25579072
Te 8.63735651 7.61528323 0.02658048
Te 4.39845376 12.18658466 4.08730431
Te 0.07910381 2.47230719 7.12393222
Te 0.24395241 9.81473406 7.17645266
Te 2.55124733 1.38373780 8.83127319
Te 3.00580156 1.07048910 19.17902912
Te 0.45577842 5.12093619 8.95743639
Te 0.87320954 4.89059284 19.61855550
Te -1.86108989 8.62311150 9.28890194
Te -1.28231101 8.57270280 19.60846451
Te -3.95618427 12.37493798 9.11708510
Te -3.32546675 12.37722829 19.67767955
Te 6.69797859 0.94763360 8.98952061
Te 7.54733376 1.26404954 19.30560379
Te 4.80606965 4.83093257 8.89306589
Te 5.21952542 4.73463000 19.65843813
Te 2.78641028 8.77974775 9.04025754
Te 2.85124292 8.65730083 19.70209031
Te 0.16063825 12.42249158 8.94892405
Te 0.91530543 12.29765592 19.35381256
Te 11.09998129 1.21062147 8.58915874
Te 11.57615211 1.65561073 19.03831184
Te 9.20709240 4.80102764 8.68686173
Te 9.34459760 5.02705464 19.13446138
Te 6.78569522 8.86850185 9.11480969
Te 7.11900464 8.62018067 19.26281762
Te 4.74952585 12.56626632 9.10406248
Te 5.08628601 12.27640205 19.41917758
Te 15.31843553 1.15195227 8.70692973
Te 15.68911596 1.51239599 18.98587702
Te 13.33314904 4.95918895 8.71655260
Te 13.78427061 4.99231442 19.11655846
Te 10.97368929 8.67239750 8.88899823
Te 11.76598111 8.61418535 19.18616293
Te 9.00446884 12.32572881 8.82123847
Te 9.40673479 12.10264696 19.15230865
Te 0.11112058 2.28550140 1.79876224
Te 0.45047543 2.20344866 12.42545676
Te -2.25226497 6.29956945 1.90507865
Te -1.48196757 6.17574640 12.41313188
Te -4.28357974 10.14382551 2.12960375
Te -3.90345306 10.06699660 12.90708942
Te -6.30320662 13.71353791 2.10839171
Te -6.44913066 13.79835067 12.96666975
Te 4.68111443 2.23279543 1.59612909
Te 4.77673978 2.37967747 12.43837496
Te 2.05633070 6.00338158 1.84251164
Te 2.61675073 6.00121875 12.59689709
Te 0.24146060 9.69941890 1.91303199
Te 0.54312168 9.87750887 12.58854183
Te -1.90499446 13.55979078 2.29102097
Te -1.76839989 13.78855308 13.16226414
Te 8.86093377 2.61624302 1.48038560
Te 9.06516557 2.21585081 12.11468206
Te 6.54588741 6.22613268 1.70051457
Te 7.05269198 6.06552800 12.28677877
Te 4.41573451 9.87104268 1.94365265
Te 4.78239899 9.96758625 12.50046278
Te 2.14708790 13.72374592 2.08047716
Te 2.76941832 13.63416681 12.82059909
Te 13.06141567 2.61594637 1.75860240
Te 13.47145957 2.49084389 12.05081856
Te 11.00008746 6.25685753 1.68834626
Te 11.38113041 6.31145948 12.38047648
Te 8.89963626 10.22248015 1.75499044
Te 9.11825703 9.87254917 12.36985077
Te 6.82946470 13.73584517 1.79000965
Te 6.99104052 13.71292919 12.50342040
Te 8.78067649 14.81135973 5.39962867
Te 0.68147439 0.05256196 15.99466942
Te 15.03111891 3.85286788 5.03465394
Te -1.45990282 3.82340638 15.99686067
Te 13.08584738 7.60008227 5.39216257
Te -3.58761280 7.61214538 16.20583492
Te 10.81601045 11.41926189 5.28410217
Te 11.46099697 11.05857134 15.83018322
Te -4.12673879 14.79747955 5.85161263
Te 4.85550235 0.04482510 15.90918837
Te 2.50179742 3.79453633 5.60975123
Te 2.62541999 3.60685876 16.18461443
Te 0.03214548 7.29008077 5.43348065
Te 0.59730487 7.32246944 16.14246397
Te -1.98697548 11.13725957 5.60480107
Te -1.43420136 10.91564525 16.06234430
Te 0.25423333 14.83625596 5.32901522
Te 9.25372719 0.28849949 15.58416711
Te 6.81137158 3.76586336 5.01194147
Te 7.11598016 3.65109989 15.79382020
Te 4.78924379 7.41531316 5.37763689
Te 4.81057386 7.38592471 15.96150838