192
Time=60000.00000005 pbc="T T T" Lattice="17.11509259 -0.62537587 0.13239150 -8.00619250 15.26519054 -0.29138872 -0.17909309 0.34974940 21.20538633" energy=-817.54934925 virial="-14.20154957 4.09840929 -1.96313356 4.09840929 -9.47195264 6.59454437 -1.96313356 6.59454437 -14.28820042" stress="-0.00109105 0.00075420 -0.00036126 0.00075420 -0.00022070 0.00121354 -0.00036126 0.00121354 -0.00110699" Properties=species:S:1:pos:R:3
Ge 0.16674558 0.36821370 10.70149524
Ge -7.90391052 15.20143742 -0.07677516
Ge 14.93695461 3.43053873 10.84325185
Ge 14.98891913 2.77764566 0.39708968
Ge 12.92131933 7.34708241 10.38236557
Ge -3.84190227 7.61945201 0.18300429
Ge 10.86346157 10.99044778 10.82017243
Ge 11.05281549 10.74718174 0.41324212
Ge -3.85366296 14.99873524 9.81124283
Ge 4.13255688 0.21166891 0.48720884
Ge 2.36122127 3.60636322 11.06999319
Ge 2.16069751 4.02768387 0.49080769
Ge 0.07426531 7.67395863 10.54249895
Ge 0.09576599 7.86726361 0.45663542
Ge -1.64485317 11.19179480 10.87978552
Ge -1.95772550 11.48450286 0.31619931
Ge 0.44221567 15.11241201 10.59996441
Ge 6.48528538 3.64565854 10.43277922
Ge 6.35220192 3.76265249 0.44727119
Ge 4.41034451 7.87471516 10.64819195
Ge 4.49869916 7.34971297 0.20181349
Ge 2.27028823 11.47961813 10.41490626
Ge 2.69960372 10.89261091 0.05614304
Ge 12.80251764 -0.19664424 10.68933044
Ge 4.91549164 14.72541609 -0.07439418
Ge 10.85342842 3.67271339 10.85064005
Ge 10.85795593 3.53502256 20.92201994
Ge 8.61637367 7.25970717 10.44419301
Ge 6.86136649 11.31596394 10.57045740
Ge 6.90817546 11.04252038 0.09587507
Ge 2.07323336 1.21342150 3.99846550
Ge 2.22819781 1.38665273 14.04681250
Ge -0.01728252 4.99239467 3.97098330
Ge 0.31583333 5.41171143 14.13421289
Ge -1.68681599 8.45336786 3.57675412
Ge -1.95599733 8.67108633 13.97344409
Ge -3.91781675 12.84281176 3.66037402
Ge -3.57919431 12.70702356 14.02982398
Ge 6.48245104 1.27482834 3.75234848
Ge 6.42404371 1.27723257 14.45177462
Ge 4.47983197 5.16098405 3.68338021
Ge 4.36537651 4.71898071 14.27247727
Ge 2.32403216 8.97179909 3.50232591
Ge 2.40886694 8.98784431 14.51675589
Ge 0.44360154 12.68068277 3.33209801
Ge 0.06776189 12.94612021 13.86031310
Ge 10.65327978 0.68069302 3.63056921
Ge 10.66335281 1.51732080 14.14591894
Ge 9.06832500 4.48840057 3.44581267
Ge 8.67238071 5.26512880 14.14719799
Ge 7.13586706 8.69112377 3.71701999
Ge 6.62214664 8.61622822 13.96311645
Ge 4.90228763 12.78079982 13.77868074
Ge 14.79274889 0.76945203 3.81132259
Ge 15.17909994 1.16431424 14.71523974
Ge 12.85099149 4.52835866 3.58258654
Ge 12.78987194 5.12420060 14.25390032
Ge 10.85794785 8.22280359 3.62681910
Ge 10.84979498 8.46269559 14.39186804
Ge 9.09061620 12.49047551 3.86217841
Ge 9.05103254 12.52213447 14.26311804
Ge -0.42745213 2.97710920 18.02101208
Ge -2.09916087 6.29911098 7.26678743
Ge -1.84066513 6.76740080 17.87710308
Ge -3.97942905 9.66433851 6.71240595
Ge -3.81785515 10.55677845 17.91635651
Ge -5.85908914 14.28886882 6.91856369
Ge -5.88534874 13.80814940 17.71155301
Ge 4.63449984 2.72414294 7.21095734
Ge 3.89333807 2.78022262 18.06750497
Ge 2.39805433 6.12942550 6.63240965
Ge 2.16168415 6.24981824 17.68590554
Ge 0.21416394 10.23654640 17.88728152
Ge -1.69323449 13.87920621 6.59729119
Ge -1.84735633 14.18670949 17.78004893
Ge 8.73106707 1.90101330 7.11509611
Ge 8.30549754 2.50767075 17.98701506
Ge 6.43282496 6.42046913 7.27066102
Ge 6.47973197 6.25720936 18.08683463
Ge 4.59659419 10.32947850 6.94277582
Ge 4.65008562 10.31663835 18.08898945
Ge 2.48461581 13.80892638 7.20933826
Ge 2.09819514 13.78202562 17.62885896
Ge 12.97160524 2.14698758 7.46142988
Ge 12.71016424 2.35050695 17.66126735
Ge 11.01216388 5.63115658 7.22831781
Ge 10.81822954 6.36249299 18.02589957
Ge 8.86892304 9.88560670 7.20053622
Ge 8.71691195 9.95866557 18.04350301
Ge 6.65614466 13.84013178 7.11999322
Ge 6.78909472 13.68666782 17.48082020
Te 8.76716100 -0.28770023 0.15294513
Te 8.79134229 7.36917509 0.20699570
Te 4.61148012 12.39058794 3.50541009
Te 0.08473562 2.84560690 7.06472499
Te 0.16056428 10.01890829 6.82849789
Te 2.23839408 1.40782406 9.14764674
Te 1.73410419 1.45746496 19.41954614
Te 0.03497727 5.19342433 9.10727057
Te 0.16907101 5.14846784 19.59281950
Te -2.04879765 8.77032321 8.86096109
Te -1.84922555 9.17489068 19.81018370
Te -3.74556150 12.56404979 8.66415776
Te -3.92741079 13.06843407 19.47957334
Te 6.46038902 1.21668116 8.86346956
Te 6.05858250 1.39397905 19.81626484
Te 4.40367219 4.81280247 8.94157507
Te 4.40645557 5.00896623 19.78144356
Te 2.23155089 8.67795576 8.99935835
Te 2.29427769 8.92351709 19.63579989
Te 0.32295786 12.85587860 8.80288219
Te 0.23974356 12.64072641 19.38149890
Te 10.80394679 0.97972451 9.03748931
Te 10.71567165 1.22620510 19.35672530
Te 8.76925162 4.76967002 8.94430738
Te 8.55887487 4.81089286 19.58799256
Te 6.55213949 8.58956326 8.86884273
Te 6.59617457 8.85802563 19.54113152
Te 4.70404836 12.39273183 8.76790974
Te 4.38821604 12.67227220 19.39814786
Te 14.99270930 0.94566511 9.17066684
Te 14.60120205 1.09828461 19.62524394
Te 12.98355507 4.61851981 8.99025103
Te 12.88326162 5.01305933 19.59490745
Te 10.71650188 8.28428094 8.69763510
Te 11.15222999 8.81217852 19.38417854
Te 8.92203467 12.13745608 8.94462215
Te 8.70658249 12.24225287 19.41578755
Te 0.03403921 2.46108459 1.73281029
Te -0.13901480 2.67789526 12.33300253
Te -1.82979094 6.20772294 1.85008760
Te -1.93089265 6.34907287 12.49687524
Te -3.91343603 10.08497008 1.95955231
Te -3.96258140 10.41663777 12.26475298
Te -6.13602265 14.08587674 1.58003202
Te -5.90841513 14.03838400 12.32983699
Te 4.41261751 2.43273597 2.10718177
Te 4.34282049 2.36326530 12.55190520
Te 2.32496886 6.48138172 1.81532225
Te 2.13816827 6.32323286 12.32557421
Te 0.38418482 10.09762083 1.91608587
Te 0.54670998 10.17840870 12.21843428
Te -1.85220308 13.80616983 1.72886584
Te -1.85183282 14.15781699 12.28508157
Te 8.76290470 2.22104827 1.94910310
Te 8.43002722 2.23769662 12.50202479
Te 6.57265176 6.02160041 2.06332685
Te 6.41979195 5.86321133 12.42656633
Te 4.57993428 9.59140849 1.71447147
Te 4.72821341 9.88114784 12.41525086
Te 2.61928324 13.66216962 1.72720717
Te 2.30013493 13.65802126 12.38077547
Te 13.04235786 2.05652410 2.06760068
Te 12.95797322 2.39639894 12.72032989
Te 10.93986286 5.74373520 1.72473236
Te 10.74634128 5.94475691 12.46518487
Te 8.96277813 9.92977124 1.99660299
Te 8.73221903 9.77005267 12.27697783
Te 7.05789487 13.42970115 1.55161958
Te 6.91634573 13.73725509 11.97367052
Te 0.05622528 0.22334194 5.43911474
Te -0.15651471 0.31187659 16.29273686
Te 14.89359657 3.17240810 5.29780632
Te 14.90528545 3.57438793 15.97262772
Te 13.16167221 6.75184097 5.33374954
Te 12.89350742 7.39478399 15.92188429
Te -6.12716089 11.73158316 5.27009630
Te 10.87133253 11.03838696 15.96869779
Te 4.27043378 0.18635648 5.48086814
Te -3.99371631 15.29982791 15.91610860
Te 2.41396174 3.83906716 5.24475910
Te 1.97713421 3.68166590 16.10971532
Te 0.13701188 7.55002743 5.33576970
Te 0.27167445 7.53342705 15.89778050
Te -1.99448784 11.51518725 5.25818551
Te -1.78317791 11.21560800 15.96066499
Te 0.58198438 14.99280856 5.14699435
Te 0.27234035 14.99320637 15.79991429
Te 6.69541922 3.37610105 5.42041425
Te 6.19193078 3.54385266 16.20932491
Te 4.48940905 7.47378803 5.48365492
Te 4.33016427 7.42749035 15.92371275
Te 2.49585396 11.24222080 5.18201627
Te 2.43167412 11.27572078 15.91203410
Te 12.95777616 -0.15731566 5.74508333
Te 12.82503423 0.06468130 15.64150761
Te 10.88414889 3.26240543 5.54704110
Te 10.48682245 3.61282719 16.01787822
Te 8.78326173 7.30579425 5.72607285
Te 8.75437551 7.64006380 15.94965346
Te 7.10326523 11.12235508 5.37398573
Te 6.55367369 11.45468108 16.04608223
192
Time=70000.00000007 pbc="T T T" Lattice="17.02552188 -0.36049771 0.16859091 -8.11443163 14.96229053 -0.40385192 0.06116541 0.16088618 21.37881883" energy=-817.69731116 virial="4.09235535 -4.82281246 -0.32031903 -4.82281246 4.58322410 8.37445435 -0.32031903 8.37445435 -16.10008216" stress="0.00229585 -0.00089547 -0.00005947 -0.00089547 0.00238699 0.00155491 -0.00005947 0.00155491 -0.00145335" Properties=species:S:1:pos:R:3
Ge -7.82866472 14.77605564 10.42442784
Ge 16.67932319 -0.10587668 0.29240189
Ge -1.78722726 3.80378621 10.66870562
Ge 14.74748933 3.46274671 0.40059581
Ge -3.76355019 7.44991790 10.55591573
Ge -3.78418649 7.76619094 21.01460838
Ge -5.90873927 11.47255130 10.20033074
Ge 10.85237168 10.80527132 0.02843535
Ge 4.17477390 0.09349156 10.73246142
Ge 4.19308262 0.14700617 0.27712639
Ge 1.96637474 3.67494962 10.75931822
Ge 2.47200587 3.79856455 0.36229236
Ge 0.44981478 7.28737295 10.75091234
Ge 0.04067349 7.40310920 -0.09210314
Ge -2.27581418 11.41635605 10.48441563
Ge -2.07091921 11.53305356 21.07610708
Ge 0.27841809 14.86663506 10.55334465
Ge 6.32318182 3.80450414 10.37792887
Ge 6.46166134 3.28018183 0.14724448
Ge 4.29046009 7.28698596 10.39350572
Ge 4.25969066 7.65355760 0.14480264
Ge 2.58034747 11.18860696 10.71899846
Ge 2.03750936 10.81022176 0.26708088
Ge 12.78688859 -0.09198495 11.07161015
Ge 4.42913354 14.61874654 20.89952888
Ge 10.83927534 3.71978676 10.81940267
Ge 10.76630510 3.68063494 21.35114865
Ge 9.11929088 7.31052165 10.98571243
Ge 6.75744528 10.95277562 10.88365953
Ge 6.39629601 10.91248042 -0.00390682
Ge 1.79639839 1.13660080 3.54721881
Ge 2.30538594 1.33230686 14.45335318
Ge 0.34702674 5.35194456 3.72903013
Ge 0.03035246 5.03052747 14.18772314
Ge -2.16223889 8.48669320 3.52870112
Ge -1.85806730 8.98914180 14.26261314
Ge -3.99455221 12.44715884 3.08406560
Ge -4.03152333 12.54789001 14.24208596
Ge 6.53534366 1.26265001 3.95770114
Ge 6.60318979 1.17030741 14.27988003
Ge 4.55946989 4.91386326 3.72802271
Ge 4.52516775 4.63614375 14.43328365
Ge 2.06476878 8.91640853 3.49488748
Ge 2.38696944 8.39926572 14.11559017
Ge 0.32660765 12.30841755 3.60525877
Ge 0.36295846 12.44572170 14.11792529
Ge 10.34915797 1.20239643 3.73379128
Ge 10.65924135 1.09926852 14.30588601
Ge 8.57498347 4.95172746 3.72776838
Ge 8.82598824 4.95585797 14.25172301
Ge 6.39492628 8.42571894 3.39386831
Ge 6.77231381 8.34494402 14.14961713
Ge 4.76509791 12.25758055 14.09406179
Ge 14.66337316 0.96032932 3.50457601
Ge 15.00005447 1.03284667 14.44562867
Ge 12.99339742 4.40088961 3.74345867
Ge 12.89689335 4.95676158 14.74613819
Ge 10.93522709 8.21558595 3.47528901
Ge 10.64567563 8.64978810 14.59479167
Ge 8.60131384 12.27793719 3.32860614
Ge 8.91713480 12.58171554 14.14716840
Ge -0.04500809 2.77596805 17.91564026
Ge -1.55382450 6.36732306 7.33689485
Ge -1.75072794 6.18999498 18.06936628
Ge -3.87570832 9.93099005 6.55149203
Ge -4.23362268 10.46722719 17.73664517
Ge -6.17804008 13.81468394 6.88778579
Ge -6.48603361 14.04530404 17.65152666
Ge 4.21397631 2.36116530 6.94916618
Ge 4.38856008 2.58162538 17.99635665
Ge 2.15248237 6.40322184 6.91119307
Ge 2.52065614 5.96201337 18.05959848
Ge 0.15663077 10.04435902 17.46347649
Ge -1.85942155 13.54698025 6.61805153
Ge -1.55972848 13.65680566 17.56348001
Ge 8.61359249 2.44186005 7.10421375
Ge 8.73486705 2.70947554 18.12760608
Ge 6.50806165 6.46187865 7.10876112
Ge 6.39222109 6.09519873 17.86676098
Ge 4.50397227 10.02870005 7.04399554
Ge 4.65943818 9.67549758 17.60280923
Ge 2.29205682 13.29424080 7.14658584
Ge 2.37667711 13.55520756 17.52124724
Ge 13.40914235 2.42249468 7.64523375
Ge 12.62653221 2.37968496 17.94894027
Ge 10.72695685 5.93181959 7.11768166
Ge 11.01301682 5.95878012 17.68345907
Ge 8.87485402 9.55916363 7.04618770
Ge 8.72937010 9.93282786 17.93137212
Ge 6.44054555 13.47445419 7.07234861
Ge 6.49114326 13.55823571 17.85537133
Te 0.22815819 14.66152415 -0.22227613
Te 8.92644071 7.29939057 0.16816750
Te 4.83646370 12.51870961 3.59019178
Te 0.02284488 2.53191682 7.19707860
Te 0.35873335 10.02050148 6.95828595
Te 2.25458495 1.05750410 9.13877340
Te 2.21179722 1.29061432 19.43336576
Te 0.21340854 4.95323988 9.11665601
Te 0.60561658 4.97064482 19.74674362
Te -1.80081716 8.69226132 9.13912263
Te -1.75295643 8.78518050 19.61614801
Te -3.99543078 12.53414725 8.76077605
Te -3.99658092 12.72940695 19.36970282
Te 6.59635869 1.11280594 9.33553506
Te 6.38516318 1.38339717 19.57471286
Te 4.39486859 4.93771403 8.96961595
Te 4.47832719 4.94939409 19.68312655
Te 2.47896743 8.52634354 8.90582916
Te 2.39007687 8.82606117 19.69222926
Te 0.38346140 12.39665653 8.99009047
Te 0.33827124 12.23523910 19.58529819
Te 10.85313716 0.93144809 9.01098082
Te 10.66721667 1.04036693 19.51207740
Te 8.52861091 4.98355151 9.28397519
Te 8.72064692 4.79955512 19.86376611
Te 6.69093840 8.58813023 9.00583043
Te 6.62259318 8.65345311 19.57320396
Te 4.40924086 12.19665038 8.72318652
Te 4.68358830 12.11262243 19.27271290
Te 15.00176320 0.93653952 9.21804806
Te 14.76137904 1.40243593 19.70091023
Te 13.02234851 4.65512337 9.13013906
Te 12.94823260 4.66818131 19.84160394
Te 10.74859344 8.46117164 9.10238391
Te 10.80828399 8.53265538 19.59854897
Te 8.96989079 12.11595393 8.82836321
Te 8.49023013 12.35579160 19.60758402
Te 0.16450623 2.59233437 1.92102805
Te 0.20768410 2.54144940 12.74121001
Te -1.83197984 6.31884261 1.73872130
Te -2.01619191 6.04789497 12.57875501
Te -4.03036041 10.05794935 1.61559195
Te -4.00005321 10.08507322 12.52944112
Te -6.03108344 13.79641950 1.35620452
Te -5.74195117 13.86430173 12.53313173
Te 4.33011299 2.34257298 2.02267110
Te 4.67865677 2.24707409 12.67277643
Te 2.29760906 6.36585779 1.99001299
Te 2.26807934 5.88444658 12.56737730
Te 0.09402240 9.93607419 2.03108579
Te 0.53846087 9.76916790 12.50748124
Te -1.94436248 13.65466633 1.42185353
Te -1.68500356 13.49747351 12.54814309
Te 8.56426280 2.30864714 2.10212794
Te 8.81704264 2.43422202 12.77700538
Te 6.65736589 6.01586053 2.12768597
Te 6.75869337 5.83980536 12.77628359
Te 4.50974252 10.01001127 1.94150951
Te 4.76107319 9.72402568 12.54393627
Te 2.51248783 13.68193020 1.65233045
Te 2.78575891 13.28593059 12.49005439
Te 12.75941529 2.23432873 1.92331111
Te 12.79924618 2.26393989 12.77830932
Te 11.00415442 5.88385057 1.98415484
Te 10.97590185 5.97842571 12.63735306
Te 8.92341443 9.86734595 2.00852532
Te 8.81170077 9.82028639 12.64160903
Te 6.56155804 13.65585423 1.41399467
Te 6.86340760 13.58536601 12.35980219
Te 0.07939095 0.19145736 5.48384704
Te -0.01294912 0.23628846 16.19109931
Te -1.73831663 3.71411965 5.19910045
Te 14.74734802 3.53722241 16.34176222
Te 13.01245739 6.94844710 5.67553213
Te -3.93311905 7.59740384 16.29241734
Te -6.01745501 11.21386906 5.29355463
Te 10.85177226 11.16723725 16.09982515
Te -3.85532414 14.74261056 5.04305804
Te 4.49123330 0.03560671 16.16472602
Te 2.34680674 3.86637302 5.53976430
Te 2.17329725 3.72101186 16.14481673
Te 0.18007793 7.56269566 5.38434623
Te 0.19738727 7.25569166 15.97217962
Te -1.82765716 11.25559544 5.08932021
Te -1.93014080 11.16829465 16.02521522
Te 8.64709472 -0.06072204 5.65655493
Te 0.33803083 14.78944044 15.91170461
Te 6.61451343 3.78411530 5.62053736
Te 6.79975859 3.59666971 16.23450721
Te 4.43933694 7.24781997 5.32352525
Te 4.82733527 7.21627935 15.92014811
Te 2.49320788 11.26949969 5.35433605
Te 2.31308468 10.79289134 15.94434825
Te 12.92449989 0.02004175 5.58281369
Te 4.52672676 14.69481164 15.69012619
Te 10.95158540 3.40259146 5.56833041
Te 10.66137829 3.33351805 16.12580774
Te 8.89257267 7.09517622 5.44848334
Te 8.77468574 7.30937611 16.01254622
Te 6.81557126 11.11522957 5.24084167
Te 6.98479856 11.21409852 15.89785535
192
Time=80000.00000008 pbc="T T T" Lattice="17.17897674 -0.72444744 -0.30023161 -8.07139126 15.17955129 0.08358181 0.40152162 0.21734755 21.29307828" energy=-817.06367901 virial="0.82764813 4.86905999 -9.46700379 4.86905999 -1.27862906 -5.58810909 -9.46700379 -5.58810909 -9.35308657" stress="0.00167592 0.00089669 -0.00174345 0.00089669 0.00128803 -0.00102911 -0.00174345 -0.00102911 -0.00019897" Properties=species:S:1:pos:R:3
Ge -7.73019412 15.24564059 10.89248457
Ge 17.00967193 -0.55766981 0.04151348
Ge -1.36812837 3.87355515 10.88062431
Ge 15.12242653 3.09847317 0.37036464
Ge 13.31791373 6.92888113 10.58156384
Ge 12.94726189 7.16494512 -0.07448588
Ge 11.24652550 10.72154032 10.37057633
Ge -5.37372633 11.80030815 21.25915197
Ge 4.47577367 0.23998591 10.73141171
Ge 4.23936401 -0.01423809 -0.01080854
Ge 2.46536832 3.70034025 10.91750781
Ge 2.46856049 3.71520996 0.00677090
Ge 0.37231607 7.29504202 10.59520978
Ge 0.35197076 7.70391863 0.40762694
Ge -1.71493204 11.19970659 11.00787353
Ge -1.70900728 11.28695727 0.34955886
Ge 0.54536790 14.69818479 10.68178785
Ge 6.79011657 3.54667856 10.62401682
Ge 6.64517783 3.42942532 -0.11263317
Ge 4.66329936 7.32591398 10.88775713
Ge 4.67953502 7.57781743 0.11205907
Ge 2.57299574 11.25914593 10.80814946
Ge 3.26280277 11.27618110 21.14936001
Ge 5.37957044 14.48602770 10.32761390
Ge 4.63074264 14.49574009 0.20168573
Ge 11.37017527 3.12378520 10.55680708
Ge 10.99496509 3.30540914 0.26347150
Ge 9.11161411 7.18810966 10.65444700
Ge 6.86277184 10.93905652 10.60341296
Ge 6.60860662 10.89636830 0.24434364
Ge 2.37304691 1.39504258 3.63401447
Ge 2.30905161 1.39124187 14.55175144
Ge 0.00053415 5.03276884 3.86276120
Ge 0.53718802 4.96308751 14.53122460
Ge -1.61424282 8.99268733 3.54821361
Ge -1.69752350 8.81940963 14.73757724
Ge -3.76348953 12.81656443 3.40741751
Ge -3.92398985 12.76672651 14.13653301
Ge 6.29836273 0.98564708 3.12356452
Ge 6.53801346 1.36250658 14.37777567
Ge 4.64062009 4.58311950 3.67120741
Ge 4.59230306 5.23540077 14.33098447
Ge 2.33545025 8.45351229 3.63127369
Ge 2.38881002 8.84231900 14.37035619
Ge 0.53502456 12.72998511 3.89366209
Ge 0.67765197 12.31432060 14.33282066
Ge 10.79390365 0.84424945 3.65449266
Ge 10.66148102 1.11759458 14.38588901
Ge 8.78925914 4.71847173 3.07839595
Ge 8.90293462 4.88152772 14.12880688
Ge 6.97117097 8.41606720 3.60979014
Ge 7.41756566 8.51781601 14.55518252
Ge 5.16242317 12.26451285 14.07294438
Ge 15.07059650 0.73552423 3.53274562
Ge 15.20242545 0.91606676 14.12144220
Ge 13.34706504 4.84489837 3.56530674
Ge 13.20594467 4.44950346 13.87505631
Ge 10.97175908 8.33711179 3.93516458
Ge 11.27593931 8.23079470 14.31611961
Ge 8.95202220 11.97550691 3.53829737
Ge 9.26081474 12.03046515 14.45754780
Ge 0.58083969 2.78735301 18.08010292
Ge -1.83311749 6.23681210 7.79989340
Ge -1.32844527 6.32951861 18.22445002
Ge -3.72416614 10.21547434 7.37553149
Ge -3.63412960 10.43105157 17.99487974
Ge -5.65461420 14.11329943 7.54844039
Ge -5.92230689 14.17242942 17.94392787
Ge 4.56767969 2.52314143 7.10920797
Ge 4.80303028 2.55004603 17.85655167
Ge 2.40520207 6.14507718 6.98722923
Ge 2.47781642 6.47984774 17.77381420
Ge 0.59425964 10.23019177 17.99525358
Ge -1.50868433 13.78195995 7.43064702
Ge -1.36802332 14.42554134 17.80785818
Ge 9.23455650 1.85491803 7.07621269
Ge 8.86338452 2.43138188 17.69680852
Ge 6.82014902 5.44794663 7.25667289
Ge 6.96752878 6.32325354 17.87185331
Ge 4.59419281 9.64167950 6.75615568
Ge 4.91814605 9.67293049 18.15924006
Ge 2.68384580 13.41066154 7.02100076
Ge 2.88317643 13.83254037 17.79848680
Ge 13.22804373 1.94613846 6.74207025
Ge 13.19378150 2.08098381 17.88371162
Ge 11.23132177 6.17666288 7.02493955
Ge 11.55919326 5.63267560 17.89509488
Ge 8.68469056 9.98513976 6.92878619
Ge 9.23669481 9.71897568 17.92687571
Ge 7.02826488 13.34884824 6.77803309
Ge 7.20766597 13.86678983 17.89102057
Te 0.83663214 15.01979707 21.10388272
Te 8.82035269 6.98077535 -0.14792651
Te 4.57931017 12.41349929 3.46775724
Te 0.12099959 2.31194260 6.90481691
Te 0.29953467 10.02225371 7.06755694
Te 2.54439802 1.34729830 8.82436810
Te 2.64716650 1.28915591 19.50342865
Te 0.34402877 5.09101822 9.03349798
Te 0.67286491 5.08907198 19.73673021
Te -1.83085764 8.64454470 9.13610053
Te -1.32741083 8.90656579 19.63201147
Te -4.00365878 12.46641705 9.08883545
Te -3.26102794 12.55193816 19.62647359
Te 6.76748021 1.11014697 8.65921559
Te 6.87025302 1.28237542 19.56239772
Te 4.56877565 4.94818765 8.82983258
Te 4.88160296 4.84667545 19.72524774
Te 2.60550378 8.29692503 8.92778774
Te 2.68749804 8.74566080 19.59407432
Te 0.61293236 12.37102661 8.97881290
Te 1.02401094 12.47912026 19.60278756
Te 10.90839042 0.81553705 8.77059718
Te 11.24053227 1.10085560 19.36972817
Te 9.00018544 4.65137534 8.69552076
Te 8.97527921 4.76247508 19.18370724
Te 6.64810799 8.41974898 9.01606580
Te 7.33815805 8.73267542 19.49522417
Te 5.01115406 11.99902242 9.00202891
Te 5.27197347 12.27555831 19.62360952
Te 15.34377101 0.45358003 8.68553133
Te 15.63326680 1.19707602 19.52408874
Te 12.98815258 4.30236452 8.50697055
Te 13.52668071 4.82486998 19.52562101
Te 11.25426005 8.29252091 8.81882739
Te 11.70206546 8.57400143 19.46470202
Te 9.30800993 12.02697908 9.00932423
Te 9.64482860 11.98828827 19.35589423
Te 0.23493634 2.42148864 1.87766971
Te 0.67021810 2.70956083 12.63556964
Te -1.83444148 6.39005119 1.99414238
Te -1.54083914 5.96849875 12.76351115
Te -3.87656245 10.03064969 2.03339860
Te -3.65658970 10.03162147 12.47173900
Te -5.83274947 13.83636239 1.73133779
Te -5.60222876 13.98679971 12.48760120
Te 4.29276274 2.38950019 1.67903707
Te 4.84888890 2.30715231 12.40288676
Te 2.27316732 6.15251764 1.80372351
Te 2.56266181 6.20171225 12.57208424
Te 0.35124151 9.90048902 2.05933659
Te 0.52147022 9.84796739 12.40561369
Te -1.66762712 13.64675999 1.97890541
Te -1.33723972 13.45380349 12.44104831
Te 8.82047577 2.18757039 1.76698239
Te 8.77928604 2.13721687 12.47532543
Te 6.52806592 6.19086096 1.68456584
Te 7.06728574 6.09082002 12.39003970
Te 4.56343804 9.83717181 1.81584231
Te 4.87189683 9.64699685 12.63212556
Te 2.53805584 13.54331979 1.70707027
Te 2.85658708 13.46989697 12.40629694
Te 12.81980201 1.90554952 1.68477335
Te 12.80580155 1.73521084 12.59781021
Te 11.02649019 5.74021515 1.73548910
Te 11.25343998 5.69948579 12.19408684
Te 8.92231102 9.46500907 1.77668071
Te 9.19060703 9.53138361 12.35553554
Te 6.89498927 13.40474319 1.85900799
Te 7.20213484 13.46914867 12.55070749
Te 9.00671209 14.36117853 4.96065977
Te 17.41256307 -0.50652045 15.80029378
Te 15.21667391 3.18263903 4.98822993
Te 15.49472337 3.14473034 15.79629956
Te -3.74573079 7.57332818 5.60845866
Te 13.41826408 6.81602554 15.74471909
Te 11.04650639 10.67095535 5.41624805
Te -5.54411171 11.58090599 15.88881532
Te 4.30465373 -0.06005880 5.39156960
Te 4.64050056 -0.00381883 15.91298134
Te 2.45005984 3.78254098 5.07630123
Te 2.63392771 3.70625338 16.36548620
Te 0.22024450 7.40273059 5.44384063
Te 0.79302023 7.36988294 16.08739642
Te -1.81423284 11.38171443 5.51047008
Te -1.30010638 11.24233794 16.40339666
Te 8.40746259 -0.19578204 5.49605362
Te 0.78843102 14.76400410 16.03552622
Te 6.78523292 3.33144135 5.37972144
Te 6.88404693 3.82098696 16.02776370
Te 4.57701250 7.37241523 5.37910600
Te 5.00334792 7.45347053 15.90213269
Te 2.35777691 11.12796235 5.32961823
Te 2.89949105 11.16650629 16.02481785
Te 5.00015544 14.62429390 5.40195084
Te 13.20143779 -0.28563573 15.91367658
Te 11.09384836 3.34072140 5.16229221
Te 11.00150020 3.50206660 15.97871872
Te 8.75993493 7.29134380 5.54470179
Te 9.31306606 7.08809888 16.00920919
Te 6.68650298 10.95943361 5.27410587
Te 7.37505315 10.95051725 15.98783814
192
Time=90000.00000003 pbc="T T T" Lattice="17.13846574 -0.63749913 -0.59516980 -8.07542659 15.06529175 0.17832520 0.50577545 0.21540248 21.12290545" energy=-818.31523079 virial="-1.77299444 -1.85707304 12.46689953 -1.85707304 13.37247576 -2.97176923 12.46689953 -2.97176923 -1.32659482" stress="0.00121400 -0.00034686 0.00232856 -0.00034686 0.00404287 -0.00055507 0.00232856 -0.00055507 0.00129738" Properties=species:S:1:pos:R:3
Ge 0.31747839 0.29501821 10.72051407
Ge 9.03339744 14.10017115 -0.29582647
Ge 15.21864817 3.03790315 10.43894703
Ge -1.94849017 3.99638154 0.09505842
Ge -3.75005416 7.93051134 10.30985615
Ge -4.08812693 7.71383632 0.36383289
Ge 11.31024663 10.80878673 10.33601833
Ge 11.04284364 10.54132905 -0.05384602
Ge 4.30393852 -0.00458933 10.31055480
Ge -3.54255000 14.88285261 20.86648814
Ge 2.38232779 3.90008998 10.72193445
Ge 2.18885181 3.44164863 0.05549626
Ge 0.17786032 7.35163881 10.82394496
Ge 0.41674774 7.48910888 0.09869363
Ge -1.29113408 11.08279964 10.78779344
Ge -1.57565478 11.29162297 21.03818950
Ge 0.55199058 14.63561119 10.51454367
Ge 6.83480866 3.54021018 10.49271657
Ge 6.12977768 3.60595180 0.15818250
Ge 4.44105675 7.52454699 10.61224544
Ge 4.50936637 7.29164521 -0.19600221
Ge 2.68984708 11.18316832 10.03364591
Ge 2.41928590 10.89634765 0.33336697
Ge 5.27675372 14.38989479 10.27659343
Ge 5.08057772 14.56630177 0.13987584
Ge 10.92405148 3.22639262 10.22974267
Ge 10.97236919 3.03564519 -0.15051793
Ge 9.09308275 7.24279969 10.69985156
Ge 7.12911074 10.76569267 10.17761409
Ge 6.74286657 10.64523361 0.18805566
Ge 2.14583386 1.24381006 3.91965331
Ge 2.32449402 1.05406825 13.92228579
Ge 0.10038208 5.13342275 3.43507115
Ge 0.50301957 4.94296980 14.45560683
Ge -1.74774075 8.68149152 4.03720717
Ge -1.45627386 9.03658398 14.32416520
Ge -3.64599886 12.55283714 3.84980908
Ge -3.62664596 12.58149726 14.06924075
Ge 6.58075071 1.00123263 3.47087338
Ge 6.51599367 0.98641040 14.10831781
Ge 4.37590960 4.60475156 3.53624548
Ge 4.72840083 4.73694778 14.26812025
Ge 2.58077119 8.39720698 3.30732150
Ge 2.81093424 8.69704672 13.99474924
Ge 0.52649456 12.60764878 3.59820288
Ge 0.82389277 12.45498063 14.17444843
Ge 10.89833350 1.08933499 3.18880942
Ge 10.79657780 0.95145761 13.95239128
Ge 9.00889736 4.31220069 3.43989614
Ge 9.07945515 4.65267679 13.90529475
Ge 6.64268472 8.43751733 3.62531004
Ge 6.95592223 8.41571927 13.94402766
Ge 4.92046411 12.33851911 13.91900910
Ge 15.06126540 0.75325389 3.21892825
Ge 15.01051898 0.68382943 13.69184772
Ge 13.38851843 4.36507283 3.13037481
Ge 13.35773224 4.18175839 13.64732469
Ge 11.17107314 7.89072530 3.41698735
Ge 11.21554643 7.91965923 13.96613469
Ge 9.27513919 11.81243423 3.40711788
Ge 9.31395888 11.90749366 13.76046188
Ge 0.33950502 2.27128347 17.66550763
Ge -1.69876334 6.18528022 7.39827840
Ge -1.31533968 6.17103455 18.19678137
Ge -3.67786059 10.16479081 7.50402695
Ge -3.65952585 9.82262778 17.62981212
Ge -5.80459423 13.65192345 7.45686046
Ge -5.96608598 13.35511314 17.87511048
Ge 4.56123648 2.56544960 7.40098987
Ge 4.97587490 2.52016945 17.76482048
Ge 2.55360582 6.05982557 7.06436194
Ge 2.91406052 6.19911212 17.47860074
Ge 0.54250919 10.23473072 17.52671977
Ge -1.36383641 13.92784655 6.91321313
Ge -1.26179868 13.83440056 18.19474988
Ge 8.74233632 2.35497325 6.63004276
Ge 8.85141234 2.31367729 17.66931461
Ge 6.82026080 6.02966564 6.79994213
Ge 7.25186791 5.94883793 17.68406167
Ge 4.87294827 9.82715915 6.71689042
Ge 4.90390690 9.72019224 17.74493434
Ge 2.82122088 13.49624568 7.09565668
Ge 3.14897675 13.53600972 17.77475659
Ge 13.07374491 2.05859197 6.82458466
Ge 13.39885663 2.19144560 17.32925187
Ge 11.16050494 5.78635389 7.05294661
Ge 11.23150549 6.06493810 17.47425465
Ge 8.95508398 9.65422381 6.73056037
Ge 9.17866934 9.59107910 17.42760826
Ge 7.07193462 13.29634995 6.94877896
Ge 7.02156657 13.30260348 17.41595108
Te 8.98248193 -0.32877540 -0.03371732
Te 8.92199881 6.99703290 0.01545756
Te 4.82595496 12.28642500 3.55655340
Te 0.22437610 2.59517244 6.99911577
Te 0.71408798 9.79362942 6.73566565
Te 2.29768496 1.27951404 8.97122232
Te 2.58877716 1.42014468 19.53186650
Te 0.34784102 5.01011397 8.87202381
Te 0.81159674 4.86692193 19.46688432
Te -1.57405060 8.83535013 8.95024252
Te -1.32286719 9.02795169 19.25579562
Te -3.67956456 12.66828851 8.83937759
Te -3.52431309 12.64894969 19.55420949
Te 6.89693699 1.37440141 8.49516845
Te 6.87752151 1.20747440 19.47739414
Te 4.45928083 4.95892995 9.02651618
Te 4.82842335 5.06009400 19.39370854
Te 2.46232229 8.56835172 9.01587883
Te 3.05386313 8.61323883 19.27538474
Te 0.22699508 12.54757587 8.72779618
Te 0.97257666 12.40048590 19.27541248
Te 10.87164714 1.08166017 8.57418854
Te 11.33669085 1.15869936 19.10968349
Te 8.91435632 4.59948445 8.70465329
Te 9.28917444 4.46769790 19.26951636
Te 6.91570241 8.62408639 8.55602865
Te 7.11914319 8.59444898 19.32939544
Te 4.97687910 12.18155696 8.60040751
Te 5.13386433 12.35587199 19.24224592
Te 15.20613794 0.74435472 8.51930020
Te 15.46235809 0.94016731 19.08050407
Te 13.08672356 4.43585826 8.59584090
Te 13.50773531 4.56646890 18.92472467
Te 11.23171415 8.66545120 8.44525757
Te 11.51162838 8.42861391 18.74224216
Te 9.32066110 12.08442248 8.57576811
Te 9.41338031 11.96608089 19.21661620
Te 0.09322050 2.73878225 1.74231272
Te 0.27058746 2.55924963 12.45263023
Te -1.72996483 6.50499648 1.87209681
Te -1.70436303 6.06530565 12.57430292
Te -3.85964268 10.03985270 2.02793832
Te -3.62922783 10.18181223 12.73477449
Te -5.93221268 13.88338503 2.05922823
Te -5.55058288 13.87555464 12.47484562
Te 4.36868796 2.26923081 1.74343525
Te 4.35499788 2.31041975 12.16452071
Te 2.32049028 6.16001808 1.69574664
Te 2.26235409 6.35188704 12.46042363
Te 0.48826361 9.85438832 1.91478390
Te 0.53938074 9.88192839 12.35213955
Te -1.51356118 13.75904368 1.94473888
Te -1.18784249 13.88156456 12.38308955
Te 8.80827469 2.28723806 1.67832114
Te 8.78040706 2.22021831 12.07236478
Te 6.49632744 5.88312342 1.69639599
Te 7.08069001 5.96448702 12.08135161
Te 4.63459477 9.53687856 1.64628531
Te 5.10644405 9.68775706 12.43392402
Te 2.88808755 13.47905949 2.00119752
Te 2.81886932 13.53090716 11.97131900
Te 13.14272986 2.05140828 1.42075577
Te 13.08239750 1.92127541 12.03017098
Te 11.04283599 5.64962381 1.45279247
Te 11.40661713 5.84625769 12.02463176
Te 8.97928575 9.62287625 1.43888885
Te 9.31721987 9.74511817 11.93271391
Te 7.16828157 13.40518483 1.71536919
Te 7.24005689 13.35124716 12.03992482
Te 9.13420084 14.25949526 5.01533998
Te 9.30642721 14.53542706 15.45419565
Te -1.85003624 3.89123891 5.35017984
Te 15.56780037 3.08511780 15.26565661
Te 13.17761981 6.95493464 4.79801510
Te -3.39774111 7.48108345 15.93932265
Te -5.87628287 11.30804189 5.58489798
Te -5.58642626 11.55666050 16.01721741
Te 4.45302154 0.20337232 5.12767894
Te 4.62234023 0.11323357 16.01094484
Te 2.30119057 3.82394191 5.12768296
Te 2.82487902 3.73799063 15.88945263
Te 0.42391731 7.31450606 5.16783528
Te 0.87596058 7.35273433 16.04092862
Te -1.57968907 11.20273277 5.47368531
Te -1.44435458 11.34225146 15.93566826
Te 8.82790822 -0.22837565 5.05921032
Te 0.70141790 14.85646388 15.84737150
Te 6.47773197 3.62588372 5.31362641
Te 6.99313997 3.77203646 15.74374866
Te 4.56725913 7.50946269 5.29651716
Te 5.07843028 7.40720931 15.74030766