192
Time=60000.00000005 pbc="T T T" Lattice="17.03983162 -0.12617915 -0.68701730 -8.31215475 15.01082295 -0.24450497 1.08765413 0.71073434 21.14448499" energy=-816.66083086 virial="5.76167112 -0.94771369 -9.80014258 -0.94771369 -12.20870856 -4.65033619 -9.80014258 -4.65033619 -9.77131202" stress="0.00262631 -0.00017528 -0.00181258 -0.00017528 -0.00069739 -0.00086010 -0.00181258 -0.00086010 -0.00024658" Properties=species:S:1:pos:R:3
Ge 9.31298915 15.08240778 9.72277694
Ge 8.71129870 14.80381349 -0.50109065
Ge 15.36795896 3.59532276 10.09001611
Ge -1.00717938 4.61694987 21.05939216
Ge -3.40202797 7.77432171 10.55223042
Ge 12.69666643 7.17805746 -0.28409922
Ge 11.28355646 11.41799335 9.42697788
Ge -5.04368359 11.92625741 20.90208338
Ge -3.56793819 15.27750589 9.96964343
Ge 4.19250837 0.06467327 0.09230554
Ge 2.78759680 4.26783884 10.35599014
Ge 2.31197257 4.09978467 -0.00134392
Ge 0.50603466 7.80561407 10.24302597
Ge 0.09788178 7.47381635 -0.23921767
Ge -1.45239226 11.42798558 10.05050421
Ge -2.00546021 11.33246830 -0.20216102
Ge 0.63087745 14.97523210 10.12354002
Ge 7.10296849 3.95944381 10.08119845
Ge 6.15663212 3.44001117 -0.31020159
Ge 4.83253008 7.91996472 9.93737211
Ge 4.17124551 7.45860470 -0.30155312
Ge 2.90302337 11.67220473 9.97660539
Ge 2.37531019 11.00885789 -0.31810561
Ge 13.49873070 0.32871290 10.01290323
Ge 5.60070807 15.52453115 20.29856605
Ge 11.41265854 4.35344829 10.13568151
Ge 10.60425826 3.63236165 -0.22606864
Ge 9.19437175 7.82869146 9.81027420
Ge 6.90390762 11.68820364 9.96723261
Ge 7.51411587 11.83880119 20.30800201
Ge 2.00370742 1.26234385 3.47206552
Ge 2.60520517 1.52360064 13.51655946
Ge 0.23904505 4.97057450 3.61903838
Ge 0.89622124 5.35544876 13.73146101
Ge -1.61392114 8.84427847 3.00971128
Ge -1.14401931 9.43138036 13.92808993
Ge -3.66297630 12.59908132 3.20333549
Ge -3.68835394 12.72707447 13.98753640
Ge 6.72099742 1.33532043 3.37877900
Ge 6.96904414 1.60138928 13.71142719
Ge 4.56142420 5.42731990 3.55155311
Ge 5.13690435 5.34992440 13.77360802
Ge 2.88745614 8.87509669 3.53162722
Ge 3.13251838 9.06154647 13.55751539
Ge 0.29146254 12.52338879 3.22006462
Ge 0.68205913 13.02377679 13.70402478
Ge 11.07060263 1.43214681 2.81488097
Ge 11.06345033 2.07564003 13.87757955
Ge 8.78576705 4.97167852 2.98691856
Ge 9.71606342 5.58918670 13.99608570
Ge 6.99470326 8.57555316 2.99101800
Ge 7.28313265 8.94822836 13.79243631
Ge 5.08224921 12.92819813 13.73217869
Ge 14.94009057 0.89719943 3.07310136
Ge 15.38010358 1.52675174 13.48597673
Ge 13.16989828 5.05944781 2.77561502
Ge 13.70510742 5.59019277 13.82918185
Ge 10.92518197 8.84263381 2.83293725
Ge 11.67520609 9.26910874 13.36386968
Ge 8.84868396 12.33708130 2.75219985
Ge 9.31827576 12.86182162 13.70995379
Ge 0.82000242 3.14720889 17.87945603
Ge -1.75519842 6.66900993 6.60384137
Ge -0.82554667 6.59166496 17.37201274
Ge -3.75535668 10.09064799 6.39206502
Ge -3.18264087 10.57531889 17.92396798
Ge -5.79700514 14.37873349 6.85429581
Ge -5.40818869 14.56865228 17.52147317
Ge 4.64652261 2.82442909 6.93020919
Ge 4.88427657 2.98633116 17.55227211
Ge 2.51491839 6.21033947 6.79297591
Ge 3.32961667 6.65891268 17.40849207
Ge 0.92498414 10.67625882 17.21334809
Ge -1.60481164 13.98353438 6.61540481
Ge -1.48104601 14.62864654 16.94049765
Ge 8.69252943 2.46523120 6.59137140
Ge 9.34391198 3.03692013 17.43454901
Ge 7.00574963 6.35506212 6.77887485
Ge 7.52974788 6.68267186 16.96747337
Ge 4.32382096 10.50551772 6.69357362
Ge 5.02067933 10.27431993 17.32064812
Ge 2.48223567 14.24366134 6.80027548
Ge 2.88040319 14.09754177 17.12451147
Ge 13.02980567 2.90318923 6.60112759
Ge 13.72951026 3.10033857 17.28929923
Ge 11.45153754 6.71757433 6.35447254
Ge 11.92399695 6.77517164 17.30490050
Ge 8.69616951 10.01397293 6.27418109
Ge 9.26980035 10.32690053 17.24761647
Ge 6.87572826 14.06122122 6.28303665
Ge 7.05833103 14.50953255 17.15418512
Te 0.56389560 14.88887997 -0.45658635
Te 8.47175537 7.20845000 -0.58366350
Te 4.38755101 12.66729580 3.19080554
Te 0.38009413 2.59870064 7.08611847
Te 0.62738274 10.22989944 6.83383869
Te 2.71326193 1.56657087 8.91112014
Te 3.06504986 1.67094489 19.67373073
Te 0.65449417 5.37220032 8.66759291
Te 0.94197222 5.39551443 19.50980775
Te -1.59398188 9.00202718 8.68748178
Te -1.13771168 9.49541390 19.32900867
Te -3.60074880 12.81875777 8.64156201
Te -3.18226057 13.29920623 19.10887019
Te 7.07362623 1.45910538 8.81590664
Te 7.13547958 1.70232856 19.34792510
Te 4.96706748 5.31746696 8.47617798
Te 5.39469633 5.57581605 19.27640144
Te 2.72885724 8.87231281 8.59507952
Te 3.14670715 9.21838588 19.30937867
Te 0.76151796 12.69257240 8.41175653
Te 1.11984610 12.99446943 18.91663219
Te 11.15232241 1.48456547 8.77206435
Te 11.90409293 2.06177024 18.90789951
Te 9.03966590 5.12392669 8.47757793
Te 9.41465414 5.32624104 19.38544947
Te 7.08173459 8.92864860 8.23295971
Te 7.21695687 9.22613748 18.98460407
Te 5.03150205 12.91424097 8.22014972
Te 5.35133418 12.99842618 18.77728637
Te 15.52776676 1.16371892 8.30698810
Te 15.89934612 1.91775752 18.81828949
Te 13.31420596 5.28196290 8.16283682
Te 14.06952310 5.55996395 18.85706942
Te 11.39585291 9.07634798 8.10809473
Te 11.92234050 9.31302891 18.86201398
Te 9.25448266 12.57955926 7.93594254
Te 9.66486768 13.22272345 18.75887885
Te 0.06268802 2.42515298 2.11490182
Te 0.69128478 2.97963139 12.37832782
Te -1.99987848 6.46691975 1.68933293
Te -1.28727655 6.90092570 12.35350517
Te -4.02857033 10.00574402 1.78038220
Te -3.24374432 10.41951690 12.33653628
Te -6.33477595 13.91126750 1.85001739
Te -5.59660615 14.09273260 12.15261608
Te 4.52608860 2.10452138 1.78898917
Te 4.77869570 2.89135196 12.25635218
Te 2.34741777 6.20659875 1.78335585
Te 3.08466899 6.62636278 11.96151298
Te 0.36888063 10.05888536 1.60506549
Te 1.03150342 10.48555448 12.28549795
Te -1.69940933 13.77484224 1.47910393
Te -1.15521345 14.14758219 12.16918173
Te 8.58540697 2.66185472 1.46260843
Te 9.08550132 2.96585743 12.07687972
Te 6.53873496 6.21969405 1.36737511
Te 7.51746329 6.40720518 12.29513344
Te 4.54234677 9.86469788 1.34656865
Te 5.21091245 10.40513593 11.85495335
Te 2.49781032 13.76790179 1.25314482
Te 2.71206802 13.97216650 11.79063531
Te 13.02369740 2.42814974 1.35217902
Te 13.27070282 3.05904619 11.95314980
Te 10.61389284 6.19953460 1.30402275
Te 11.36721518 6.64030053 11.99134385
Te 8.86534249 10.10810495 1.17136222
Te 9.48617968 10.07641562 11.71410995
Te 6.75339463 13.43962139 1.17517230
Te 7.28379938 14.07920554 11.57649397
Te 17.22736858 0.08114297 4.64143592
Te 9.42345552 15.39691223 15.09002192
Te 15.13845989 3.79144622 4.82843327
Te -1.01720875 4.29190633 15.76897341
Te -3.66345777 7.79984930 5.05204699
Te 13.53740093 8.11043398 15.40052539
Te -5.84071857 11.46623701 5.15952970
Te 11.50796210 11.73452733 15.30071434
Te -3.54661749 15.14997474 5.07685605
Te 4.96278061 0.72833589 15.49540776
Te 2.60413554 3.93632980 4.95779000
Te 2.84201827 4.42309137 15.82305224
Te 0.42903923 7.49256378 5.08695934
Te 1.05035357 7.89358355 15.70189272
Te -1.67797134 11.52281861 5.06499091
Te -1.28922141 11.79198706 15.80040135
Te 0.50908808 15.04254202 4.88207326
Te 0.91842503 15.43919944 15.59671363
Te 6.87801944 3.77841445 5.27605695
Te 7.10497716 4.19356658 15.82424952
Te 4.78063253 7.68064595 5.35390952
Te 5.11436084 8.17285295 15.64282611
Te 2.46868202 11.55387635 5.18873281
Te 3.05443882 11.90781408 15.27279489
Te 4.61577885 15.08963516 4.82244910
Te 5.08795980 15.39878536 15.18914890
Te 11.03020119 4.00000346 4.82802403
Te 11.82365536 4.20519702 15.55194555
Te 8.90691990 7.48185980 4.82550501
Te 9.59371843 7.79279290 15.49258264
Te 6.74425710 11.35573800 4.76407189
Te 7.50812435 11.90394156 15.54599804
192
Time=70000.00000007 pbc="T T T" Lattice="17.15933356 -0.43736431 -1.04394287 -8.27415358 15.18099300 -0.17575961 1.30022941 0.81125983 20.86972219" energy=-816.87185740 virial="-5.85307826 0.51681891 1.17809437 0.51681891 4.43035211 7.07076001 1.17809437 7.07076001 7.10895782" stress="0.00047934 0.00009583 0.00021845 0.00009583 0.00238617 0.00131112 0.00021845 0.00131112 0.00288286" Properties=species:S:1:pos:R:3
Ge 9.49471436 14.83006744 9.27892917
Ge 8.73648648 14.49371885 -0.78960465
Ge 15.59434202 3.74395092 9.14798455
Ge 14.95017024 3.42337116 -0.97718093
Ge -3.05933185 7.90088499 10.39482071
Ge 12.87206329 7.10393746 -0.99665320
Ge -5.34417494 11.75194724 10.54198563
Ge 10.99955561 10.83569862 -1.13789740
Ge 4.84889060 0.31413537 10.19878395
Ge -3.83928590 14.82427646 0.00387783
Ge 3.02316771 4.33806860 10.21829864
Ge 2.12356277 3.78534806 -0.19609269
Ge 0.93170743 7.85114417 10.22754683
Ge -0.07779595 7.43571989 -0.15305390
Ge -1.33538920 11.80130970 9.98077377
Ge -0.46909282 12.06457217 20.46357785
Ge 0.73086117 15.10816503 9.67665704
Ge 7.23560437 3.98775241 10.02208901
Ge 7.76537437 4.46058386 20.28203392
Ge 5.24432650 7.86970266 9.88969066
Ge 4.36685963 7.54227625 -0.13339040
Ge 3.06014148 11.28431262 9.91730890
Ge 2.23702896 10.97093986 -0.42281086
Ge 5.65677683 15.16834353 9.34837920
Ge 4.57615332 14.81684794 -0.75902249
Ge 11.45845958 4.03554735 9.79602008
Ge 10.77018158 3.41197965 -0.19747765
Ge 9.30893644 7.53562665 9.83623121
Ge 7.24648369 11.01134895 9.56115233
Ge 6.81029956 11.29454310 -0.92453494
Ge 2.23608885 1.20975647 3.09315373
Ge 3.01986276 1.65784065 13.74555285
Ge 0.18386948 5.10990132 3.60006457
Ge 1.29291350 5.36221792 13.81536998
Ge -1.84941998 8.99173491 3.61047938
Ge -1.19865073 9.02765573 13.98173750
Ge -3.61225958 12.77206352 3.64692541
Ge -2.92229155 13.14204883 13.98862878
Ge 6.64861104 1.04117776 3.06229520
Ge 7.55906073 1.25480713 13.77025774
Ge 4.61173540 4.92017740 3.06383844
Ge 5.49325587 5.16452302 13.58956903
Ge 2.49640604 8.81424964 3.23754847
Ge 3.07483991 9.35427934 13.27376251
Ge 0.57700695 12.47636321 3.13943088
Ge 1.24793006 13.07636193 13.49693268
Ge 10.84541711 1.07555725 2.69087658
Ge 11.60583130 1.28087225 13.14069633
Ge 8.59855280 4.68793013 2.46849701
Ge 9.55354532 5.31703353 13.66400815
Ge 6.98404369 8.81222499 2.51090681
Ge 7.70016200 9.00074113 13.40398609
Ge 5.65136157 12.48190248 13.33694095
Ge 15.00922952 1.30290207 2.58439950
Ge 15.79241330 1.31890122 13.09603905
Ge 13.04263813 5.06889701 2.82708928
Ge 13.99106291 5.04291617 13.04708581
Ge 11.27885266 8.76930272 2.66257297
Ge 11.81799897 8.98294925 12.68340606
Ge 8.64210778 12.33711025 2.72387065
Ge 10.21500923 12.73173918 13.10138078
Ge 1.15026707 3.19427722 17.20411254
Ge -1.51884473 6.51129139 7.12992445
Ge -1.18752724 6.93088126 17.73301590
Ge -3.82317072 10.43493556 7.03062042
Ge -3.17279833 10.50008148 17.35939102
Ge -5.97297093 14.07018970 6.96970649
Ge -4.94856967 14.47501339 17.40226182
Ge 4.71397966 2.83427747 6.59348335
Ge 5.22892914 2.77405957 17.62496196
Ge 2.66155879 6.10482922 6.56181456
Ge 3.35013796 6.88792957 16.80647192
Ge 1.51188633 10.63372763 17.17095695
Ge -1.12800245 14.11018633 6.26462848
Ge -0.55849280 14.42935873 17.29102572
Ge 9.03659232 2.55023079 6.44562808
Ge 9.85172569 2.87355448 17.15853735
Ge 6.83304145 6.35822617 6.13065731
Ge 7.76585307 6.43876467 17.17442132
Ge 4.96252888 10.14377471 6.35115161
Ge 5.72459624 10.25851812 16.75995244
Ge 2.88083260 13.78833382 6.73827318
Ge 3.99735405 14.17258051 16.70424385
Ge 13.08619846 2.22444565 6.22266799
Ge 13.94997224 2.87773394 16.60126307
Ge 11.15087380 6.14666485 5.96592252
Ge 11.72252984 6.06130425 16.93389527
Ge 9.13441830 9.67069942 5.68788999
Ge 9.88064086 10.22738662 16.67055774
Ge 7.26108643 13.96533883 6.18691229
Ge 7.72985771 14.48640535 16.43596143
Te 0.34491014 14.70422239 -0.33654400
Te 8.75008796 7.47791377 -0.81666811
Te 4.64561081 12.41542045 2.75123305
Te 0.60076527 2.95691916 6.98743487
Te 0.84493614 10.18925397 6.41969379
Te 2.68632450 1.72607318 8.61082252
Te 3.06718906 1.94267954 19.19809530
Te 0.71752082 5.49482970 8.69779377
Te 1.16159658 5.79585771 19.06140013
Te -1.16421109 9.06695077 8.60134800
Te -0.64815024 9.46837669 18.80699809
Te -3.08369622 12.94414030 8.57605325
Te -2.74189193 13.39586758 18.84103446
Te 7.13936567 1.18155500 8.41933052
Te 7.43945623 1.80201264 18.99291447
Te 4.70574931 5.47072657 8.44266958
Te 5.54017448 5.46599760 18.67136323
Te 2.90085424 8.91892937 8.53473687
Te 3.67445151 9.28830425 18.49276436
Te 0.78130227 12.80195466 8.33652236
Te 1.70947027 13.12569589 18.57060347
Te 11.05972235 1.19044022 8.24727216
Te 12.08018046 2.03129429 18.73393179
Te 9.04945105 5.15688759 8.20521738
Te 9.84306572 5.27588228 18.68000630
Te 7.36437167 8.69151525 7.99043375
Te 7.77129331 9.38922526 18.37840856
Te 5.20861895 12.66143360 8.06949649
Te 5.64172030 13.11901184 18.41978821
Te 15.62085420 1.10838722 7.82651440
Te 16.28321615 1.67146671 18.16642391
Te 13.42913284 5.16478984 7.99628906
Te 14.04542419 5.38504615 18.49209520
Te 11.22447350 9.19047880 7.92221449
Te 12.21522125 9.24062575 18.10826626
Te 9.53025413 12.43751003 7.81524466
Te 9.97163761 13.10667538 18.07805997
Te 0.22271969 2.56306168 1.66080893
Te 0.84105237 3.08307633 12.27747344
Te -1.73888073 6.37987210 1.71098444
Te -1.25260453 6.93677950 12.24065207
Te -3.79994456 10.29660553 1.91827330
Te -3.08975129 10.66402088 12.32639605
Te -5.90905259 13.70688642 1.65336937
Te -5.37859724 14.59460147 11.92465703
Te 4.44594555 2.40004929 1.60553373
Te 4.92191710 2.84826247 12.07273328
Te 2.59453229 6.19746235 1.49036203
Te 3.18263844 6.97214001 11.88240002
Te 0.19643718 10.01448812 1.48083271
Te 0.97409595 10.60273840 11.93782452
Te -1.67236223 13.71164866 1.43408883
Te -1.33666529 14.33338926 11.62498944
Te 8.53972816 2.24557605 1.17998852
Te 9.37127359 3.05295543 11.95448779
Te 6.59879574 6.13110670 1.13137452
Te 7.27832816 6.62280684 11.84406469
Te 4.29858661 9.83388545 1.08051644
Te 5.34973202 10.58439245 11.58762061
Te 2.58052957 13.62725877 1.10147146
Te 3.23909454 14.27459162 11.32460512
Te 13.08604166 2.36422842 1.10194020
Te 13.76823751 2.75359053 11.46646487
Te 10.79242676 6.09585278 0.99726608
Te 11.57903347 6.57226789 11.23438876
Te 8.84203952 10.19331871 0.92207999
Te 9.77837169 10.63310244 11.54567696
Te 6.66512067 13.62036935 0.83844027
Te 7.65559874 14.15008951 11.25280491
Te 9.21478506 14.79364439 4.12626363
Te 1.00011091 0.83161932 15.91187412
Te 15.39538922 3.53836075 4.29516126
Te -1.01410615 4.36645058 15.62468156
Te 13.30305456 7.36273233 4.33191442
Te 13.80201808 7.83958315 14.47309609
Te -5.69461304 11.82712022 5.31156167
Te -5.06054568 12.24071092 15.64201835
Te 4.42743827 0.35223238 5.32069031
Te 5.42549276 0.70886853 15.74893486
Te 2.62040262 3.94695474 4.91786732
Te 3.26792338 4.26037806 15.45433358
Te 0.39842321 7.57144618 5.09228081
Te 1.23906088 8.07811244 15.40259208
Te -1.65590100 11.60176515 5.02711185
Te -0.81894686 12.14458167 15.39240352
Te 8.70227271 0.02272711 4.54638391
Te 1.49980766 15.56325694 15.00925036
Te 6.85102120 3.55662620 4.66316588
Te 7.48150572 4.19310129 15.22928863
Te 4.52790002 7.44304484 4.80523771
Te 5.43929418 7.98047633 14.96777529
Te 2.76676012 11.23931236 4.57234147
Te 3.19370373 12.05640522 15.19834336
Te 12.98283595 -0.01090269 4.56102248
Te 13.69620569 0.50447190 14.93522022
Te 10.83409275 3.46330468 4.33894809
Te 11.93104474 4.22499324 14.85457647
Te 8.88941322 7.31892259 4.48774235
Te 10.05244811 8.01407024 14.99102956
Te 6.69886347 11.00020488 4.43823060
Te 7.77852378 11.77887757 14.84390694
192
Time=80000.00000008 pbc="T T T" Lattice="17.48883733 -0.50527741 -1.04750969 -8.03538570 15.13809830 0.19260842 1.60432635 0.54672371 20.88709406" energy=-817.84087026 virial="-39.74705485 -5.67151698 -14.44902667 -5.67151698 -21.47127729 1.47891454 -14.44902667 1.47891454 -16.82240641" stress="-0.00572148 -0.00103643 -0.00264045 -0.00103643 -0.00238172 0.00027026 -0.00264045 0.00027026 -0.00153217" Properties=species:S:1:pos:R:3
Ge -7.03633274 15.10153713 10.27126583
Ge 18.87291321 0.13702048 19.68417587
Ge 16.19998889 3.45653577 9.65531655
Ge 17.10696336 3.55110228 19.86619780
Ge 14.12768257 7.21032536 9.60071747
Ge 13.36791435 7.30603720 -0.55945981
Ge 12.11924449 11.02860103 9.73822843
Ge 11.30490581 11.01250610 -0.86468947
Ge -3.03719139 15.25088567 10.15640268
Ge 5.94618007 0.51934806 20.57648714
Ge 3.05323256 3.70688433 10.72965167
Ge 2.22081976 3.68862596 0.11755930
Ge 1.47101425 7.49474060 10.41492718
Ge 2.07529111 7.69081204 20.67046397
Ge -0.89165699 11.49762474 10.29824877
Ge -1.62472964 11.43368137 0.15903948
Ge 1.14141978 14.99196606 10.37248620
Ge 7.46072774 3.88460605 10.40817894
Ge 6.95396156 3.79284226 0.08985034
Ge 5.29210670 7.59387279 10.05114457
Ge 4.64248012 7.51666079 -0.24934449
Ge 3.44758211 11.35600061 10.41698779
Ge 2.82567534 11.11939525 -0.34331975
Ge 6.35453857 14.82254543 9.78586117
Ge 13.03024348 -0.17613767 -0.67395048
Ge 11.86130942 3.69889918 10.06362990
Ge 10.95765736 3.30659294 -0.35023553
Ge 10.31732337 7.50087757 9.63100065
Ge 7.65385982 11.49026117 9.76592817
Ge 6.90065279 10.96597767 -0.29935617
Ge 2.46567562 1.22365279 3.33604294
Ge 3.15987274 1.22794591 13.72969151
Ge 0.15797500 5.26661258 3.54105426
Ge 1.19671784 5.27102854 14.09237028
Ge -1.51962261 8.60801003 3.30522450
Ge -0.75204073 9.27112002 14.04025681
Ge -3.12176634 12.51795390 3.85951777
Ge -2.65719022 12.99173483 14.01351164
Ge 6.58483568 1.25048227 3.21347723
Ge 7.72245715 1.19808410 13.90446259
Ge 4.54659083 4.93556768 3.29650561
Ge 5.57753623 5.27186395 13.84078176
Ge 2.83231723 8.56335431 3.32659448
Ge 3.47039945 8.80882517 13.82391448
Ge 0.76523598 12.18311075 3.32617283
Ge 1.94640547 12.86718365 13.80280402
Ge 11.11787154 0.68401343 3.11561669
Ge 12.23800951 1.57830201 13.27292759
Ge 9.46423785 4.44679967 3.06253269
Ge 9.92835756 5.17958325 13.44685853
Ge 7.20509512 8.49443338 3.50128557
Ge 8.15863860 8.53467085 13.80245012
Ge 5.64189941 12.39409142 13.34217513
Ge 15.61492187 0.87666220 2.63467130
Ge 16.35975602 1.43333529 12.96157424
Ge 13.72257451 4.46368401 2.72232234
Ge 14.63577629 5.22159141 13.07338941
Ge 11.45129741 8.44528536 2.90018949
Ge 12.07011272 8.77171235 13.46551918
Ge 9.99188732 12.24792753 2.86996555
Ge 10.63685921 12.47868792 13.31364048
Ge 1.67182964 2.90951051 17.00097471
Ge -1.28290358 6.53363277 7.61326232
Ge -0.77047320 6.84430406 17.79450206
Ge -3.05585670 10.07521934 7.02060304
Ge -2.51792962 10.85183580 17.84872364
Ge -5.46107123 13.93583551 7.13468877
Ge -4.57926661 14.49599115 17.86330601
Ge 4.90360284 2.99630471 6.60246752
Ge 6.02377914 2.99999480 17.34106090
Ge 2.62879325 6.59928639 6.98154691
Ge 3.82161580 6.59199215 17.50563807
Ge 1.74957403 10.59204425 17.37904594
Ge -1.00487275 13.80445533 7.04223574
Ge 0.01264894 14.48189584 17.35617425
Ge 9.45060240 2.30485349 6.57672060
Ge 10.37788391 2.91020584 16.77802736
Ge 7.32274200 5.93276935 6.71317114
Ge 7.88149488 6.61234046 17.39366763
Ge 5.84594270 10.00134700 6.68788793
Ge 6.54557737 10.47642921 17.27973189
Ge 3.15136520 13.78175729 6.54078658
Ge 4.18647942 14.15124089 17.44532404
Ge 13.57800705 1.97519251 6.12730615
Ge 14.13733224 2.49578299 17.10158031
Ge 11.62304204 6.19691224 6.28946440
Ge 12.61613772 6.15430986 17.05374144
Ge 9.55687654 9.51941750 6.21656995
Ge 10.48793149 10.19054459 16.73119091
Ge 7.72092433 13.68650730 6.26686661
Ge 8.40762951 13.93386821 16.86621833
Te 8.64062945 -0.22468018 -0.24482473
Te 9.09245965 7.15828379 -0.49161693
Te 5.19261669 12.35202059 2.90610333
Te 0.71568837 2.93796048 7.20245545
Te 1.25335444 10.13841649 6.80637152
Te 2.99523446 1.51631791 8.56589306
Te 3.66903612 1.84155644 19.23562042
Te 0.93490879 5.21155365 8.98896072
Te 1.59375154 5.27969296 19.14172982
Te -1.20068020 9.02638203 8.89583931
Te -0.27461699 9.44100729 19.34194816
Te -3.08411018 12.68399271 8.73612316
Te -2.36800086 13.14629572 19.29123466
Te 7.39365643 1.12158617 8.27426891
Te 8.02595124 1.67057088 18.76331618
Te 5.41006557 5.03320589 8.47654602
Te 5.96749011 5.29809311 18.99689005
Te 3.23322019 8.72723830 8.57551825
Te 3.89844472 9.21526805 18.93505645
Te 1.39877011 12.53700283 8.84797246
Te 1.86362080 13.06688173 19.05770036
Te 11.54720559 1.03008748 8.25920328
Te 12.33650489 1.53398964 18.73468284
Te 9.58389280 5.03502705 8.06682954
Te 10.48275346 5.04783180 18.68373110
Te 7.84342542 8.48131856 8.36269877
Te 8.51410595 9.01665721 18.72569931
Te 5.61249712 12.57607279 8.09352518
Te 6.65384931 12.77332061 18.90891320
Te 16.02968962 1.02301193 7.82597887
Te 16.76016155 1.35686935 18.33146461
Te 13.96616157 4.75214467 7.94309741
Te 14.88868991 5.03105591 18.53804679
Te 12.21140383 8.79310430 7.96860689
Te 12.91657786 8.83292989 18.32037341
Te 10.23165308 12.28645779 7.86076184
Te 10.85454439 12.82435000 18.30191998
Te 0.47140627 2.42895532 1.90063203
Te 0.93633450 2.82550152 12.24400224
Te -1.73310145 6.29036072 1.48178405
Te -0.90317066 6.76365817 12.25695137
Te -3.93624927 10.34964576 1.80436865
Te -3.03631737 10.07081556 12.50109046
Te -5.60413463 13.90941556 1.83921948
Te -4.80864240 14.07221997 12.19183615
Te 4.48664631 2.50929578 1.70589381
Te 5.46390864 2.75268243 11.89875942
Te 2.57223592 6.27477533 1.48994255
Te 3.56840255 6.56039314 12.06904600
Te 0.71642372 10.02066188 1.70161616
Te 1.64392137 10.13551803 12.06623817
Te -1.75916079 13.74555203 1.77767960
Te -0.69418715 14.16377867 12.29582387
Te 8.82584410 2.22804545 1.55717231
Te 9.87313506 2.41097910 11.65822437
Te 6.94111100 6.20350167 1.52022969
Te 7.88907472 6.24492792 11.86811313
Te 4.95102699 9.78946649 1.37689839
Te 5.98961203 9.90987307 11.94644586
Te 3.06617582 13.78625353 1.50079565
Te 3.68396717 14.00718972 12.02338588
Te 13.53398391 2.28753728 0.87170291
Te 13.97065182 2.32498417 11.26398059
Te 11.31975814 5.76510590 1.19991051
Te 12.22699296 6.31520615 11.73919972
Te 9.26439434 9.70587575 1.07432571
Te 10.36447772 9.89316133 11.70697744
Te 7.49236688 13.46574220 1.01290974
Te 8.27376224 13.70312908 11.39900482
Te 9.88059798 14.66854326 4.57884289
Te -6.70208082 15.53212142 15.81430011
Te 15.84619700 3.39210458 4.33689703
Te -0.68381354 4.06114575 15.74816519
Te -3.39328866 7.62872534 5.42980578
Te 14.75941403 7.32005982 14.87770815
Te 11.84811742 11.02859478 4.43749461
Te 12.55490778 11.24859481 14.91454606
Te 4.87406983 0.05642732 5.21879316
Te 5.64598705 0.45127133 15.42511539
Te 2.72492396 3.94381744 5.14784609
Te 3.55416977 4.22095178 15.50678010
Te 0.94022952 7.48357583 5.13258114
Te 1.51163455 7.84179180 15.58860204
Te -1.08186673 11.50856541 5.35335048
Te -0.54639009 11.65735924 15.93339171
Te 9.12421601 0.02393669 4.81685512
Te 10.13569489 0.32038630 15.25319129
Te 7.10557712 3.63451229 4.68024459
Te 8.22831303 3.93640769 15.41220311
Te 5.19577984 7.25158362 5.24213043
Te 5.91547240 7.73906257 15.36409518
Te 3.39243740 11.25702299 4.98926606
Te 3.84197959 11.49381847 15.64262880
Te 5.56291128 14.86906351 4.66339240
Te 6.19946111 15.07482445 15.18236701
Te 11.68845811 3.76215910 4.58177437
Te 12.42780994 3.85312768 15.03269856
Te 9.49834918 7.28374344 4.62999922
Te 10.35248021 7.50997111 15.31441923
Te 7.66504105 10.99048547 4.83254525
Te 8.23578466 11.35938270 15.03130889
192
Time=90000.00000003 pbc="T T T" Lattice="17.21211794 -0.61985622 -1.20628431 -8.08894035 15.20948513 0.19690510 1.40379323 0.54763492 20.87595663" energy=-818.26807362 virial="-6.08187691 -7.38946237 7.87542400 -7.38946237 -7.64135075 0.88814043 7.87542400 0.88814043 0.40611756" stress="0.00043720 -0.00137113 0.00146130 -0.00137113 0.00014784 0.00016480 0.00146130 0.00016480 0.00164106" Properties=species:S:1:pos:R:3
Ge 0.71618892 0.30596683 10.47655153
Ge 17.06491083 -0.56148047 -0.94741792
Ge -1.27818029 4.29565096 10.86294248
Ge 14.93989180 3.12820251 -1.06166282
Ge -3.25544912 7.80256075 10.43409852
Ge -3.88792313 7.56827766 0.40119831
Ge 12.03371840 10.63345570 9.27079558
Ge -5.72114486 11.31736645 0.17033107
Ge 4.86101906 0.45501931 10.15323922
Ge -3.81148287 14.90288389 -0.08186611
Ge 2.80071370 3.92698247 10.23782258
Ge 2.45080276 3.60574440 0.16217649
Ge 1.02534987 7.55102560 10.22167932
Ge 0.75801500 7.66658245 0.13602488
Ge -1.20411192 11.55954075 10.34228669
Ge -1.59602786 11.42264256 0.14258491
Ge 1.25214489 15.00303808 10.11684468
Ge 7.61488247 3.66772378 9.75649626
Ge 6.60103402 3.39110543 -0.39305145
Ge 5.05558652 7.84113116 10.04804261
Ge 4.49473843 7.24987821 -0.03497846
Ge 3.18736328 11.00101043 9.65012217
Ge 2.93229687 10.97035853 -0.09486833
Ge 5.87782950 14.98517086 9.92565559
Ge 12.88735162 -0.33430714 -0.51407319
Ge 11.74373209 3.61743315 9.63185364
Ge 10.96396848 3.62647078 -0.84769118
Ge 9.80365389 6.99260173 9.55671541
Ge 7.25217803 11.16560600 9.70165937
Ge 7.03091857 11.01634397 -0.43394823
Ge 2.55889183 1.33210179 3.18383173
Ge 3.24021823 1.35337268 13.71344387
Ge 0.65780227 5.01629370 3.74941712
Ge 1.13108662 5.42537129 14.08291174
Ge -1.59979875 8.57227237 3.44373970
Ge -0.68496215 9.12662351 14.26117640
Ge -3.57265791 12.74250640 3.59329596
Ge -3.17981458 12.74275531 13.80992339
Ge 6.94275815 1.14249332 3.25035226
Ge 7.36406414 1.21753935 13.39021398
Ge 4.78118096 4.88901696 3.28564763
Ge 5.41153751 5.44227320 13.22618101
Ge 2.70416377 8.82744669 3.25876946
Ge 3.22062436 9.00267073 13.33427984
Ge 0.81460159 12.74973128 3.15677271
Ge 1.57403303 12.76298827 14.00317502
Ge 11.33269670 0.55120118 3.08518838
Ge 11.59513372 0.93333891 13.14894875
Ge 9.21155314 4.58800572 3.04527020
Ge 9.56254440 5.01111255 13.55920867
Ge 6.87405421 8.36757152 2.94608307
Ge 7.79510478 8.98470938 13.15387925
Ge 5.74338535 12.68310141 13.70208456
Ge 15.50028756 1.03188662 2.43431060
Ge 16.17346820 1.02763481 12.95236192
Ge 13.37894305 4.64346334 2.58823895
Ge 14.26356548 4.80884848 13.05201122
Ge 11.22701583 8.48876138 2.74469013
Ge 12.02516780 8.31434013 13.17077369
Ge 9.60985841 12.34153639 2.69363414
Ge 10.11283474 12.35212511 13.16236565
Ge 1.58222011 2.98278676 17.51083837
Ge -1.58051824 6.40045196 6.90178126
Ge -0.41236129 6.98771597 17.55240546
Ge -3.30733140 10.35172390 7.09043290
Ge -2.71388704 10.28838825 17.73540695
Ge -5.61716851 14.05096255 7.06825649
Ge -4.26587456 14.34181893 17.68919451
Ge 4.52416482 2.64185826 6.94721793
Ge 5.43831509 2.68581049 17.12913105
Ge 2.85550661 6.09321256 6.88508145
Ge 3.62145902 6.75883683 17.56069170
Ge 1.42819123 10.67362958 17.26969821
Ge -1.34459548 13.95229327 6.82947526
Ge -0.20339932 14.00405926 17.01261311
Ge 9.15808665 1.96924942 6.41458783
Ge 9.95035354 3.10420150 17.11427963
Ge 7.11867075 6.12102939 6.64452912
Ge 7.65564441 6.58872398 17.08705714
Ge 5.20307856 10.03733977 6.51160398
Ge 5.89317759 10.24062158 17.07014033
Ge 3.25629082 13.93432173 6.30017929
Ge 3.96517670 13.82909845 17.10728181
Ge 13.54831807 2.05204516 6.08676658
Ge 13.71391191 2.51855661 16.70868566
Ge 11.85079147 5.86858470 5.89140153
Ge 11.85087840 6.66935292 16.29952632
Ge 9.29412635 9.56501590 6.12159682
Ge 10.23947084 10.01126562 16.83909248
Ge 7.52112368 13.36319495 6.33165372
Ge 8.21772267 14.06550799 16.91561413
Te 0.68611584 14.83337642 0.07028968
Te 9.06035929 7.49949804 -0.35868125
Te 4.99740708 12.40606111 3.13342506
Te 0.25774020 2.82387197 6.80314517
Te 0.77000732 10.13380212 6.52545988
Te 2.78000142 1.48340638 8.54371634
Te 3.66873879 1.52178508 19.27786670
Te 0.60425555 4.99496334 8.80257585
Te 1.53434185 5.37389881 19.18986934
Te -1.33084184 8.80233682 8.77668286
Te -0.49369697 9.22701822 19.10109152
Te -3.28919644 12.64729118 8.84184493
Te -2.28749009 12.91183095 19.25963217
Te 6.99098506 1.16900804 8.39210226
Te 7.50118989 1.49611276 18.75693075
Te 5.04483583 5.01437511 8.43387063
Te 5.70685099 5.17155541 18.74834192
Te 2.84454756 8.64342785 8.37245491
Te 3.71384195 9.36567605 18.95618426
Te 0.85989134 12.66333549 8.36543366
Te 1.74891053 13.03260923 18.93126008
Te 11.38514837 0.89031014 7.98965990
Te 12.09207691 1.79509046 18.63042730
Te 9.30854709 4.71939709 7.76760830
Te 10.18880228 5.55947417 18.42977936
Te 7.49506797 8.36668133 8.14751194
Te 7.92663333 9.11174335 18.69081965
Te 5.21332255 12.38253226 8.15816425
Te 6.12906987 12.86822038 18.72390469
Te 15.74502675 0.88631812 7.81923685
Te 16.42127745 1.30181507 17.89857305
Te 13.54158627 4.74139826 7.72101745
Te 14.35223421 4.87459541 18.20177221
Te 11.53946181 8.39466323 7.54625556
Te 12.50669661 8.86824798 18.13331902
Te 9.58198084 11.96261145 7.86622979
Te 10.30762830 12.64557188 18.34716696
Te 0.32869513 2.58513484 1.93597433
Te 0.65625074 2.72477966 12.18028407
Te -1.72144152 6.38965192 1.84409014
Te -1.15344815 6.63697479 12.52660020
Te -3.85951751 10.15102042 1.87144476
Te -3.31974561 10.14906116 12.19126383
Te -5.94014313 14.13223692 1.94616676
Te -5.00895348 14.17067869 12.48338250
Te 4.45117686 2.30328037 1.63371678
Te 5.29545632 2.79232968 11.81931086
Te 2.46764202 6.01673130 1.60079212
Te 2.88449817 6.36631226 12.15975689
Te 0.68245289 9.93734419 1.64434920
Te 1.13029839 10.35932844 12.25360335
Te -1.66807401 13.93835590 1.66419944
Te -1.12686358 14.10012868 11.99010181
Te 8.63427957 2.39718072 1.42872816
Te 9.50386996 2.58545733 11.70589879
Te 6.73437921 6.00925684 0.99459889
Te 7.35737903 6.44005054 11.77173592
Te 4.79515144 9.68584013 1.44150246
Te 5.26102637 10.24010323 11.84579771
Te 2.98480453 13.64384244 1.47206372
Te 3.34822215 13.75482667 12.00133479
Te 13.01471645 2.04147826 1.11827350
Te 13.46056365 2.33454666 11.35929494
Te 11.23291613 5.74003836 1.07851560
Te 11.67068092 5.99776878 11.56272847
Te 8.89092528 9.95648164 1.26146530
Te 9.82965967 9.83526089 11.60978585
Te 6.99587035 13.62510813 1.04265699
Te 7.97465293 13.77783591 11.64318011
Te -7.68700299 15.32231334 5.67465922
Te 1.13043411 0.49390822 15.63904877
Te 15.40253031 3.22974060 4.05808217
Te -0.76833930 4.23082866 15.88025260
Te -3.56717084 7.79486272 5.39286646
Te -2.92046899 8.06433925 16.07643882
Te -5.53442304 11.54748661 5.56273256
Te -4.85747477 11.89964025 16.22672705
Te 4.52245374 0.08096179 4.97933604
Te -2.61096051 15.39955014 15.58574494
Te 2.76145168 3.79711098 5.09733979
Te 3.21315814 4.27411377 15.74864903
Te 0.66781696 7.45391227 4.94816886
Te 1.50610088 7.88487561 15.44811136
Te -1.62542661 11.53029045 5.23708552
Te -0.77194657 11.63859376 15.66244790
Te 0.82871520 14.83640411 5.02927443
Te 9.56071955 0.27472487 14.99620022
Te 7.04538451 3.75038703 4.78712832
Te 7.56080313 4.15811997 15.50042211
Te 4.71506899 7.30685750 4.81996166
Te 5.54344084 7.78681214 15.30380332