192
Time=60000.00000005 pbc="T T T" Lattice="17.02633279 0.20730574 1.11466829 -8.73668637 14.78230128 -0.70411716 -1.24401338 0.13629660 21.14395451" energy=-818.05989581 virial="4.48446889 1.25424763 -2.56397855 1.25424763 -1.95338568 1.01740359 -2.56397855 1.01740359 -12.19708920" stress="0.00243275 0.00023313 -0.00047658 0.00023313 0.00123611 0.00018911 -0.00047658 0.00018911 -0.00066795" Properties=species:S:1:pos:R:3
Ge -0.45140505 0.28874268 10.92605653
Ge 16.73305784 0.28904124 1.28464174
Ge -2.60517520 3.76714911 10.40571602
Ge -2.14763507 3.63646999 0.12936161
Ge 11.86789989 7.82089251 11.21426693
Ge 12.63374791 7.48298373 1.02479524
Ge 9.58793299 11.51296396 11.08207151
Ge 8.88970836 11.44204966 21.43871988
Ge 3.33969444 0.21913434 10.48625177
Ge 4.01690073 0.38912287 0.52152708
Ge 1.47655131 3.73776816 10.61950508
Ge 0.95998867 3.81297705 21.20643992
Ge -0.71291778 7.50620335 10.47799573
Ge -0.27434068 7.75797583 0.38654964
Ge -3.06758193 11.44896833 10.57041264
Ge -3.33462226 11.39398950 20.87997624
Ge -0.84876448 14.93306619 10.53202621
Ge 6.09392201 3.84749663 11.07215136
Ge 6.56142653 3.55552873 0.79546763
Ge 3.64674983 7.55868878 10.76978572
Ge 4.02247981 7.52134473 0.41986598
Ge 1.19803431 11.07881060 11.31061823
Ge 0.75731640 11.11888538 21.05647798
Ge 12.24831094 0.28443125 11.63646212
Ge 12.50192291 0.50724571 1.23105556
Ge 10.37323268 3.90304930 11.44337402
Ge 10.45749829 3.81933917 0.89868563
Ge 7.76102979 7.52836771 11.41052934
Ge 5.72067264 11.30272376 11.15934100
Ge 4.78505887 11.82058751 21.41655252
Ge 1.95910431 0.85825077 3.70045892
Ge 1.48700415 1.08492851 14.37097064
Ge -0.18213394 4.97137323 3.90581413
Ge -0.85843510 5.05887734 14.09638050
Ge -2.47450353 8.92873431 3.01750777
Ge -3.42151875 8.70276789 14.02753451
Ge -4.51592490 12.03730750 3.20965771
Ge -5.26579102 12.60126916 13.83620093
Ge 6.16101606 1.28745771 4.14471123
Ge 5.69363074 1.59538469 14.63580948
Ge 3.85730967 5.24800492 4.02222303
Ge 3.12870446 4.80665459 14.30568173
Ge 2.13125300 8.53349489 3.97560628
Ge 0.77233657 8.65205307 14.41765867
Ge -0.40526238 12.58612541 3.67674789
Ge -1.04250069 12.78961369 14.28245659
Ge 10.67611744 1.39256845 4.90931244
Ge 9.54411851 1.70654977 15.37107715
Ge 8.16539611 5.09899805 4.52905228
Ge 7.15879029 5.22603486 14.95100033
Ge 5.84121936 8.87581731 3.72651652
Ge 5.82564896 8.94636914 14.81193758
Ge 3.07255145 12.31935768 14.52161687
Ge 14.85042487 1.77299826 4.53987166
Ge 13.88922927 1.30790616 15.48632931
Ge 12.21183170 5.20131303 4.55811463
Ge 12.03467710 5.38452336 15.10686169
Ge 10.16260907 8.98294026 4.04257730
Ge 9.69310826 8.56747150 14.96547149
Ge 8.04283092 12.38030077 3.90216761
Ge 7.48257573 12.75993213 14.46967944
Ge -1.11899159 2.81124942 17.86499558
Ge -2.82113337 6.48474843 6.79791256
Ge -3.33815511 6.12338160 17.44884148
Ge -4.69125726 10.04918986 6.77308880
Ge -5.60034230 10.25842228 17.60086605
Ge -7.08781945 13.57087708 6.41824108
Ge -7.29291350 13.48908590 17.00830092
Ge 3.62303761 2.92907614 7.72364054
Ge 2.86941872 2.44773992 18.18596856
Ge 1.64359686 6.36845034 7.02157990
Ge 1.31315135 6.20356566 17.92518771
Ge -1.35184988 10.26771629 17.57772884
Ge -2.50206797 13.53408553 7.14977569
Ge -3.25086563 13.80434671 17.68749386
Ge 8.14677100 2.51813488 7.97678171
Ge 7.09885529 2.71075452 18.14805197
Ge 6.07823245 6.42512276 7.51564917
Ge 5.19596963 6.51528571 18.36358758
Ge 3.56731814 10.05836403 7.45981200
Ge 3.20701882 9.68437199 17.84296688
Ge 1.67236677 13.61442076 7.41498481
Ge 1.00858516 14.15403357 18.04855577
Ge 12.61553033 2.55035541 8.24810656
Ge 11.43662041 2.84040087 18.67543362
Ge 10.21950838 6.76922279 7.77816583
Ge 9.48648182 6.33538844 18.72744169
Ge 7.76195357 10.31191489 7.65692134
Ge 7.22530610 10.34018320 18.20436107
Ge 5.52895041 13.58380659 7.46194383
Ge 5.03430301 13.94112488 18.13634724
Te 8.49414331 0.13736695 0.93911940
Te 8.22076873 7.42583883 0.79462212
Te 3.74986178 12.61148440 3.75500446
Te -0.52460811 2.45766551 7.02620806
Te -0.64221604 9.98939093 7.12738221
Te 1.42206205 1.21844881 8.97128085
Te 0.82355472 1.25839655 19.63124150
Te -0.47110465 5.37212399 8.84050877
Te -1.04323178 5.12095992 19.61596372
Te -2.72310138 8.82856537 8.81408556
Te -3.44245047 8.61753181 19.39264661
Te -5.08868597 12.48693113 8.70927472
Te -5.48031001 12.50748853 19.05832257
Te 5.92105838 1.51003063 9.50334591
Te 5.01399954 1.28834488 19.93461299
Te 4.01314888 5.19514501 9.45014559
Te 3.11376631 5.03100212 19.75494341
Te 1.48559660 8.75336528 9.23089522
Te 0.87437795 8.65383002 19.38332085
Te -0.57872087 12.51561332 8.95570014
Te -1.36861910 12.62514068 19.24285355
Te 10.12422981 1.35841649 9.55456796
Te 9.46971523 1.64696645 20.17806687
Te 8.20472566 5.14483822 9.46015770
Te 7.15682246 5.05949463 20.01429475
Te 5.73645393 8.79018480 9.48037040
Te 4.85505589 9.07108470 19.90116372
Te 3.57185169 12.47134881 9.12281497
Te 2.95434026 12.77374555 19.74038443
Te 14.47678205 1.26870326 9.94911529
Te 13.43586970 1.53494238 20.41148599
Te 12.35232551 5.30117230 9.76518316
Te 11.48840794 5.22856317 20.20202001
Te 9.83946250 9.04108524 9.59412448
Te 9.22944175 8.84780397 19.93816181
Te 7.67015740 12.46806005 9.33145997
Te 7.00788087 12.69555792 20.10718327
Te -0.18206818 2.50816316 1.80071679
Te -0.50019427 2.61065439 12.55283455
Te -2.50651976 6.09757259 1.61859298
Te -2.80445761 6.08490732 12.42144322
Te -4.74312104 9.80605033 1.32821362
Te -5.15727529 9.75764815 11.97883375
Te -6.78787942 13.42231862 1.11869892
Te -7.26771971 13.66329433 11.84474321
Te 4.20546680 2.62235301 2.28380774
Te 3.57112971 2.53784269 12.79867319
Te 1.99665073 5.89374471 1.66695913
Te 1.41775405 6.26248535 12.42461359
Te -0.30657362 10.18825276 1.62171326
Te -0.99335909 10.04528099 12.50740014
Te -2.62363583 13.48984949 1.61814389
Te -3.02759971 13.84928968 12.33165860
Te 8.46387251 2.62935325 2.44432364
Te 7.93571144 2.65531969 13.10647579
Te 5.92025621 6.05709795 2.08101056
Te 5.58038474 6.64531961 12.90829384
Te 3.95206940 9.98797823 2.08626473
Te 3.53797379 10.10413829 12.54547414
Te 1.82154497 13.70572307 1.95838495
Te 1.30420301 13.64268144 12.75284975
Te 12.50382036 2.81786563 2.74362687
Te 12.20622970 2.55216861 13.12903631
Te 10.31843532 6.21539025 2.57854873
Te 9.75378785 6.13940943 13.06192828
Te 8.34603110 10.17519766 2.20587796
Te 7.75503766 10.22787174 13.04316498
Te 6.04207333 13.86642792 2.34791144
Te 5.60393920 13.94406894 12.80915208
Te 8.07854150 14.84548742 5.49614965
Te 7.36427934 15.07033800 16.12904935
Te 14.28592186 4.02666533 6.32409733
Te -2.94295720 3.70126452 15.52318571
Te -4.57836849 7.80186820 4.90176470
Te 11.44465720 7.62827828 16.81112291
Te -6.87134992 11.17771044 4.72022584
Te 9.44209432 11.42408956 16.44626384
Te -4.83622149 14.52866412 4.91329087
Te -5.39922819 14.70542985 15.60945274
Te 1.78164772 4.03577268 5.55169625
Te 1.20040120 3.67983143 16.18379507
Te -0.37607770 7.40692164 5.39150930
Te -0.96303871 7.45519454 15.98628321
Te -2.71822398 11.17426002 5.28509893
Te -3.13938524 11.09074808 15.68353722
Te -0.59029385 14.83469423 5.35481466
Te -1.19310386 14.92076235 15.98884225
Te 5.98427633 3.76239652 5.96400236
Te 5.15345933 4.15627651 16.57734280
Te 4.10339059 7.56948569 5.58799389
Te 3.37726004 7.62234133 16.14784395
Te 1.64578356 10.92916154 5.50060417
Te 0.85799976 11.15016189 16.07956410
Te 12.59399704 0.21543089 6.33710735
Te 3.17114091 14.89100813 16.21484479
Te 10.36976482 3.88099180 6.21032555
Te 9.62076281 3.99097777 16.59181160
Te 8.22060921 7.38520038 5.99093943
Te 7.47062004 7.57500686 16.57148810
Te 5.77550101 11.17285928 5.60339088
Te 5.40345804 11.47512908 16.59140482
192
Time=70000.00000007 pbc="T T T" Lattice="17.19774680 0.09672222 0.65089113 -8.71765636 14.85899045 -0.43453009 -0.98865939 0.15553636 21.07852746" energy=-817.18555969 virial="-4.49269634 -0.99327358 5.04291138 -0.99327358 -5.04124937 -3.38292647 5.04291138 -3.38292647 -7.01178317" stress="0.00075925 -0.00018345 0.00093140 -0.00018345 0.00065794 -0.00062481 0.00093140 -0.00062481 0.00029399" Properties=species:S:1:pos:R:3
Ge 16.51779017 0.27871365 11.18450896
Ge -8.46359034 14.63063124 -0.23644850
Ge 14.40169017 4.04391530 10.95673244
Ge 14.90732127 3.91522437 0.98200040
Ge -4.77703081 7.44079496 9.98962430
Ge -4.24957733 7.32959515 0.07869808
Ge -6.90766034 11.71020364 10.07678134
Ge -7.18202554 11.35430505 20.66509085
Ge 3.81789253 0.34251631 10.97167720
Ge 4.11439704 0.16199485 0.25394462
Ge 1.74124137 3.79567997 10.60533964
Ge 1.92323082 3.94781589 0.33737642
Ge -0.28534074 7.32760524 10.92118982
Ge 0.15332810 7.33770337 0.11650842
Ge -2.59468821 11.39982321 10.38033151
Ge -2.29362451 10.81288367 0.10212268
Ge -0.85836576 14.75697892 10.41620102
Ge 5.89003971 4.02156298 10.76545496
Ge 6.30427604 3.70128122 0.51657765
Ge 3.92612164 7.60265380 10.99030194
Ge 4.22199776 7.74571312 0.50224398
Ge 1.82120630 11.63713851 10.67048057
Ge 1.59060967 11.26990841 0.15341478
Ge 4.13168123 14.94733161 10.48621814
Ge 12.67588617 0.08029926 0.58638612
Ge 10.21925405 4.08611250 10.89374911
Ge 10.70217740 4.03926158 0.71082396
Ge 7.98984216 7.25257122 10.96527392
Ge 5.96059616 11.02930337 10.58874546
Ge 6.46677266 11.23649504 0.52138265
Ge 2.31859523 1.12273402 3.57089681
Ge 1.19480745 1.76330941 14.12732163
Ge -0.05655374 5.32655173 3.73878327
Ge -0.84920047 5.39429640 14.11326731
Ge -2.37878344 8.82916255 3.51870038
Ge -2.79490136 8.91206493 13.75616415
Ge -4.16799977 12.20048064 3.59360082
Ge -5.04457182 12.04825640 13.84238015
Ge 6.31073799 1.06649375 4.09246445
Ge 6.22401317 1.41741556 14.26670921
Ge 4.14984065 5.27121044 3.53229156
Ge 3.75556776 4.94221084 14.63679299
Ge 1.79138412 9.03581783 3.90643656
Ge 1.30876463 9.08198914 14.21149905
Ge -0.06812138 12.65719122 3.75905437
Ge -0.35774812 12.87803793 14.27221202
Ge 10.37665233 1.23895277 3.94463012
Ge 10.12004945 1.69600625 14.76928937
Ge 8.36592866 4.98472538 3.67772278
Ge 7.75819206 4.97430318 14.45715742
Ge 6.18932850 8.79344496 3.68105549
Ge 5.58940788 9.18833494 14.42922927
Ge 3.50810887 12.66263128 14.27857290
Ge 14.75453016 1.62035945 4.12336396
Ge 14.31791226 1.43457647 14.68543436
Ge 12.65005968 4.93561510 4.14831475
Ge 12.25503641 5.21919238 14.52022666
Ge 10.34745250 8.65728421 4.38001751
Ge 9.84459622 8.73473385 14.89153631
Ge 8.23480992 12.51067075 3.91614156
Ge 7.92897945 12.43211707 14.28834520
Ge -0.73187487 2.51277841 17.67867927
Ge -2.40528687 6.21232502 7.03082998
Ge -2.87932666 6.00421336 17.46324981
Ge -4.80215921 10.08582715 6.89009225
Ge -5.25021720 9.75446008 17.41110286
Ge -6.96157545 13.66001720 6.57005864
Ge -7.19321588 13.86682202 16.99962518
Ge 3.76933777 2.60261286 7.30205128
Ge 3.34757891 2.59637167 17.69013368
Ge 1.88489746 6.50214392 7.18735661
Ge 1.20323333 6.51228775 18.01257326
Ge -0.76990613 10.00646663 17.39722446
Ge -2.28296408 13.94841305 6.88622465
Ge -2.87759265 13.62410632 17.27934378
Ge 8.45478208 2.45505027 7.60720018
Ge 7.40259736 2.96377038 18.06814094
Ge 5.58665180 6.22403967 7.10139033
Ge 5.31362270 6.43063653 18.25383275
Ge 3.90184750 9.76133628 7.45582344
Ge 3.76037761 10.16214048 17.91923515
Ge 2.04506643 13.83396952 7.14960702
Ge 1.35063645 13.61646416 17.96190353
Ge 12.16486265 2.32625996 7.33503421
Ge 11.72669901 2.71106453 18.42932789
Ge 10.19807795 6.51702752 7.52714517
Ge 9.95548456 6.66633794 17.94880299
Ge 8.32027418 10.01969700 7.33341940
Ge 7.56213260 10.11865690 18.01494846
Ge 6.25053096 13.81717475 7.07106950
Ge 5.80806213 14.12448124 18.01029793
Te -0.23093739 14.38689056 0.06594289
Te 8.46321855 7.73972768 0.43962489
Te 4.26372921 12.45988050 3.76712739
Te -0.28206251 2.61275587 6.88575436
Te -0.05729162 10.14078349 7.28757330
Te 1.74176430 1.23171756 9.10209630
Te 1.04720038 1.51254418 19.64014443
Te -0.50772183 4.74866313 8.80909158
Te -0.98764394 5.17141956 19.66000999
Te -2.81783601 8.73842853 8.75824555
Te -3.18404112 8.80610846 19.38115257
Te -4.91397969 12.62362204 8.38898211
Te -5.05011280 12.53541503 19.11931321
Te 6.08568290 1.32901414 9.23725324
Te 5.40090628 1.56672367 19.67836363
Te 3.73848234 4.96570437 9.11039738
Te 3.43267379 5.25278638 19.90521020
Te 1.80461225 8.65210442 9.09884623
Te 1.25229621 8.88104771 19.58855260
Te -0.44262801 12.67292107 8.81365109
Te -0.95868040 12.39896213 19.15108909
Te 10.57702404 1.24949435 9.55658025
Te 9.70855083 1.42052027 19.81548539
Te 8.02868708 5.06034156 9.16786881
Te 7.63891833 5.32400856 19.75456245
Te 5.84692179 8.55190863 9.20610290
Te 5.43808083 8.99762612 19.65954155
Te 3.77427811 12.38792663 8.72628387
Te 3.25680050 12.34972227 19.54888354
Te 14.73116871 1.31134531 9.34242287
Te 13.95536955 1.53019127 19.84670412
Te 12.22289694 5.01382140 9.36113714
Te 12.00463841 5.32057426 19.83173642
Te 10.17855258 8.73237999 9.21963326
Te 9.73761270 8.91229023 19.85517715
Te 7.97985549 12.30744252 9.30522771
Te 7.75147564 12.69082848 19.75029012
Te -0.09709663 2.38083224 2.08051178
Te -0.77459351 2.42330292 12.32229326
Te -2.31458992 6.30397663 1.80852718
Te -3.07802115 6.28378769 12.14108666
Te -4.39016825 9.93945138 1.64637270
Te -5.22114661 9.85996757 12.22401157
Te -6.73167344 13.55371181 1.60162649
Te -7.13212858 13.97441040 11.99072079
Te 4.55618564 2.23332901 2.14433511
Te 3.49074446 2.58271757 12.87779286
Te 2.09248898 6.39120300 2.05563478
Te 1.35309998 6.19504541 12.63312177
Te -0.19259124 9.86830729 2.01879401
Te -0.52101938 10.18932456 12.49971295
Te -2.65963831 13.71244012 2.05748005
Te -2.78208167 13.62025540 12.31453616
Te 8.67647844 2.60882902 2.07171364
Te 7.80845521 2.62740497 12.64075317
Te 6.42822436 6.22935325 2.04004701
Te 5.84348592 6.09748725 12.64129415
Te 4.23432315 10.09272032 2.20967907
Te 3.64287793 9.97743308 12.60768076
Te 2.10834897 13.48884608 1.99385007
Te 1.46290573 13.90304572 12.53460171
Te 12.69533528 2.41976052 2.16069826
Te 12.01377067 2.69609457 12.92306043
Te 10.69444155 6.22201122 2.27847777
Te 9.65187667 6.36977205 13.02973100
Te 8.23829664 10.09470199 2.40845564
Te 7.93565161 9.95896074 12.77187764
Te 6.44961502 13.71661669 1.95080871
Te 5.65171435 13.40963991 12.52172361
Te 8.27458677 14.72001539 5.47837639
Te -0.81153599 0.36105092 16.08387281
Te 14.59331713 3.66534612 5.87409170
Te -2.89987063 3.81516725 15.69636556
Te -4.59106844 7.54051120 5.23726872
Te -4.87940609 7.37884281 15.87027466
Te -6.69995714 11.32264750 5.04033787
Te -7.31109191 11.39718854 15.63641508
Te 3.94204675 0.06860867 5.70992570
Te -5.11834467 14.99928777 15.69575197
Te 1.94350325 3.91831567 5.49985776
Te 1.04670436 4.01843144 16.05953283
Te -0.38335224 7.47980670 5.38419970
Te -0.73826739 7.72842219 15.96554477
Te -2.40666859 11.13373151 5.46521634
Te -3.08620045 11.21288740 15.68038559
Te 8.55902343 0.12108021 5.83066507
Te 7.75121379 0.41556609 16.37268283
Te 6.06028864 3.59200577 5.68318647
Te 5.48427963 3.82328533 16.41804378
Te 3.80268963 7.47422596 5.47680554
Te 3.36102669 7.41887704 15.98412519
Te 1.92074663 11.42000294 5.49645851
Te 1.44961177 11.52524436 15.96062886
Te 12.74695413 0.12234328 5.93657867
Te 3.33703367 15.00537368 16.07973974
Te 10.51391817 3.80179481 5.57927346
Te 10.24017487 3.92723684 16.35396460
Te 8.12982309 7.51797873 5.59716693
Te 7.74081120 7.69490121 16.20701088
Te 6.28969401 11.06644256 5.58923573
Te 5.50974458 11.37602909 16.01835763
192
Time=80000.00000008 pbc="T T T" Lattice="17.38112813 0.17072222 1.01377195 -8.75512506 14.76770005 -0.82334314 -1.18691541 0.37051827 20.91151665" energy=-816.38096303 virial="-14.55453283 1.76056610 -7.05686488 1.76056610 2.09704679 8.79445776 -7.05686488 8.79445776 1.01113366" stress="-0.00109863 0.00032502 -0.00130279 0.00032502 0.00197548 0.00162358 -0.00130279 0.00162358 0.00177500" Properties=species:S:1:pos:R:3
Ge 8.17871739 14.84473836 10.93236297
Ge 0.00074409 0.01667189 0.05943195
Ge 14.26812181 4.04002700 11.37276321
Ge 14.67832349 3.64518738 0.92370080
Ge 12.15343323 7.76620332 11.16087506
Ge -4.15358461 7.38547428 -0.13481408
Ge 10.18368850 11.13980246 11.01509411
Ge 10.77287606 11.21466842 0.75502400
Ge 3.77676408 0.34589671 10.90942825
Ge -4.41203686 14.75424240 -0.27798603
Ge 1.58618199 3.78171568 10.77337605
Ge 0.74289229 4.06741133 20.93731013
Ge -0.67700564 7.52908753 10.27968430
Ge -0.29409614 7.40914681 0.39975720
Ge -2.79802028 11.37500591 10.53892320
Ge -1.92641719 11.12532682 -0.04710564
Ge -0.52570152 14.79317222 10.40663999
Ge 5.70036435 3.88332642 10.48048274
Ge 5.43292206 4.07054226 21.04770275
Ge 3.96249236 7.62580838 10.45970889
Ge 4.72551853 7.47807155 0.49533590
Ge 1.31911815 11.21242646 10.55584264
Ge 0.79952494 11.58344219 20.60096609
Ge 3.95817317 15.06905170 10.51759942
Ge 4.26351851 14.79027767 0.26939127
Ge 10.02579052 3.94686164 11.23670201
Ge 10.82517185 3.88537751 0.69237608
Ge 7.81548072 7.61629254 10.84822311
Ge 5.79569067 11.77208217 10.63310107
Ge 5.76858966 11.18823199 0.20866010
Ge 1.84071266 1.24984377 3.44851413
Ge 1.16417797 1.39751305 14.16162119
Ge -0.14915121 4.68433914 3.86784367
Ge -0.71049961 5.05885697 13.96196715
Ge -2.30436397 8.50219192 3.48390758
Ge -3.34659521 9.20930037 13.91079346
Ge -4.44100802 12.31170175 2.97604582
Ge -5.13879111 12.62418949 13.62601757
Ge 6.11250253 1.52781555 3.91597204
Ge 5.84188467 1.57191653 14.84529786
Ge 4.54070386 4.66570700 3.97762535
Ge 3.38917052 5.41835616 14.40467686
Ge 1.75349350 8.53297585 3.42547983
Ge 1.14820971 8.56867183 13.82949224
Ge -0.36646723 12.36832159 3.54828961
Ge -0.74783805 12.58053839 13.85471292
Ge 10.39174707 1.12426252 4.48880377
Ge 10.03180141 1.60075117 14.36261366
Ge 8.59876753 4.68000063 3.88159765
Ge 7.71212034 5.05154125 14.36380741
Ge 6.03131940 9.11426123 3.83634669
Ge 5.58908663 9.02636854 14.27398663
Ge 3.72050269 12.51951608 13.98840251
Ge 14.84316704 1.49891653 4.40430961
Ge 14.18322518 1.75282354 15.20989867
Ge 12.61561383 4.85829049 4.61581971
Ge 11.95818706 5.18853318 14.64781393
Ge 10.04930365 8.93244440 3.76175907
Ge 9.92484434 9.12114200 14.49964256
Ge 8.36749413 12.63746618 4.21489754
Ge 7.68027283 12.60631825 14.32201763
Ge -0.83298289 2.97399700 17.81062703
Ge -2.86318474 6.25836024 6.95068769
Ge -3.76332993 6.59530892 17.16017483
Ge -4.61050726 10.02915424 6.85858416
Ge -5.76537038 10.07957154 17.27813206
Ge -6.96020376 13.70694910 6.42997120
Ge -7.59745694 13.82651290 16.92684816
Ge 4.06403775 2.46327020 7.20723971
Ge 3.66287911 2.83859646 17.96826127
Ge 1.75163050 6.46096450 7.05718827
Ge 0.94939931 6.39424136 17.42993492
Ge -0.81694622 10.26145521 17.43003635
Ge -2.74002167 13.72843753 6.75165693
Ge -3.31359530 13.74287236 17.17193934
Ge 8.45960099 2.36815812 7.52533621
Ge 7.60486322 2.94276383 17.98269353
Ge 6.44028680 6.55288213 7.41380747
Ge 5.44259493 6.58859062 17.96720558
Ge 3.97317658 9.97057533 7.15494187
Ge 3.14559545 10.51010061 17.95823520
Ge 1.75756006 13.67317991 6.78649264
Ge 0.88886524 14.09651699 17.28414503
Ge 12.79758735 2.49406528 7.68031575
Ge 11.84799430 3.06403551 18.22814178
Ge 10.36623800 6.43763489 7.69536452
Ge 9.42188789 6.48914784 18.05035425
Ge 8.01046973 10.15560537 7.37267922
Ge 7.66394494 10.15346326 17.66829014
Ge 6.17616579 14.03429466 7.60981462
Ge 5.69698043 14.10830541 17.42980217
Te -0.00890853 14.73253291 -0.22107345
Te 7.46702969 7.70306372 21.25306930
Te 3.68389040 12.33518036 3.59841508
Te -0.59174634 2.74370378 7.16749342
Te -0.29697254 9.84779281 6.88010100
Te 1.94165595 1.50078741 8.92618352
Te 1.16609484 1.54207716 19.29386250
Te -0.37574320 5.31604687 8.78138392
Te -1.08081405 5.28014302 19.21330779
Te -2.77403221 8.76992627 8.75735821
Te -3.42575681 8.94421374 19.07521108
Te -4.68848332 12.74357160 8.32773136
Te -5.29128571 12.50287156 18.68714657
Te 5.87745028 1.30058615 9.17553381
Te 5.39177824 1.61381406 19.57895491
Te 3.69013866 4.98710812 9.05657299
Te 3.34132986 5.22819621 19.48667152
Te 1.68111853 8.92285711 8.86059958
Te 1.01823031 8.76415987 19.13576155
Te -0.50227652 12.39998194 8.61555876
Te -1.01521627 12.63333407 19.02042141
Te 10.38113850 1.42255314 9.56739655
Te 9.84771377 1.73084488 19.67707137
Te 8.18606115 5.29030884 9.16632019
Te 7.49802973 5.36091858 19.58616638
Te 6.06317127 9.17388037 9.05298563
Te 5.38165009 9.19083527 19.47334382
Te 4.05322483 12.57767745 8.76693693
Te 2.98138001 12.92289443 19.27802305
Te 14.79901225 1.64071290 10.06588693
Te 14.00796897 1.77667233 20.13107500
Te 12.54754392 5.40336704 9.55103571
Te 11.78862232 5.73666889 19.62930447
Te 10.17085818 9.17571023 9.13972531
Te 9.59201910 9.16169596 19.82362563
Te 8.35416792 12.82974904 9.22343134
Te 7.76811723 12.99246099 19.57680987
Te -0.14233069 2.36505234 1.60666973
Te -0.50071316 2.76630062 12.30630186
Te -2.34363391 6.12910897 1.59031349
Te -2.64468252 6.41660858 12.10734934
Te -4.10774529 9.94107612 1.32108108
Te -5.27645610 10.20119462 11.92270853
Te -6.80479648 13.64003497 0.80813358
Te -6.98362058 13.69784591 11.81752263
Te 4.10313151 2.59420821 2.28094436
Te 3.93555899 2.72296099 12.63494945
Te 2.15567471 5.98532089 1.86616031
Te 1.48981717 6.41622782 12.35453277
Te -0.25184100 10.04510707 1.82085474
Te -0.74222088 10.16446054 12.23618865
Te -2.54434504 13.81201508 1.58499096
Te -2.80611297 13.87420324 11.87740851
Te 8.55308173 2.46617102 2.12475593
Te 7.94183999 2.57339807 12.83696457
Te 6.42734294 6.23368497 2.35982664
Te 5.87664947 6.79173342 12.46842883
Te 3.91589546 9.74293042 1.99799882
Te 3.58678495 10.20993671 12.38891003
Te 1.87182358 13.44571077 1.86490489
Te 1.53287223 13.68522567 12.30499357
Te 12.68923201 2.54013471 2.59233863
Te 12.61094252 2.75031752 13.10075250
Te 10.69826332 6.01550509 2.40673842
Te 10.18302642 6.63651968 12.99584073
Te 8.46165754 10.24762288 2.05762453
Te 7.87873916 10.20537888 12.59937701
Te 6.34845912 13.92101541 1.96489618
Te 5.97433271 13.91821693 12.43933741
Te 16.98099596 0.36660542 6.40864614
Te -0.71178882 0.31367052 15.89133476
Te 14.64149281 3.86409944 6.43974870
Te -2.96981116 4.01511893 15.67987135
Te 12.66898423 7.47508950 6.08185396
Te 11.88704216 7.69305006 16.35950403
Te -6.89979295 11.31866018 4.70776116
Te -7.39394864 11.43261700 15.15879129
Te 4.23745290 0.25039367 5.62036254
Te -5.24071792 15.06684392 15.22344214
Te 2.06969330 3.97974602 5.38624811
Te 1.29779913 3.96766909 15.94441020
Te -0.31523612 7.27267786 5.13140330
Te -0.95504037 7.68586668 15.59386760
Te -2.81977080 11.20647134 5.07932174
Te -2.54342917 11.41803938 15.62057575
Te -0.41130827 14.85806906 5.21748177
Te 7.81725066 0.38256558 16.21567323
Te 6.48391707 3.93519792 5.95148895
Te 5.66586423 4.31005437 15.94474774
Te 4.12463325 7.75773095 5.48838313
Te 3.56926021 7.97691968 15.96027251
Te 1.78067774 11.20456237 5.39374720
Te 1.20433183 11.59687781 15.80477382
Te 12.54242373 0.23259012 6.17859011
Te 12.25214586 0.58032746 16.59196251
Te 10.61079328 3.94551570 6.23114824
Te 9.86002506 3.91091797 16.20642945
Te 8.25875700 7.91117601 5.48330532
Te 7.97216530 7.91051994 16.07988863
Te 6.04438176 11.42221057 5.60739928
Te 5.50976701 11.67070569 16.12891217
192
Time=90000.00000003 pbc="T T T" Lattice="17.11075530 0.00824578 1.26832300 -8.50179297 14.93662467 -1.30822043 -1.52152793 0.47304216 21.01577296" energy=-816.25823087 virial="-16.92776722 -5.70186067 1.08034945 -5.70186067 3.81799079 22.40951740 1.08034945 22.40951740 -9.39495337" stress="-0.00153961 -0.00105459 0.00019982 -0.00105459 0.00229744 0.00414478 0.00019982 0.00414478 -0.00014637" Properties=species:S:1:pos:R:3
Ge -9.11468449 15.06961942 9.44583017
Ge -1.66480686 0.86609515 20.95919043
Ge -2.90313778 4.17757672 10.48882695
Ge -1.97279211 3.71315878 -0.22602082
Ge -4.78510640 8.07024056 9.78658361
Ge 12.72937557 7.51937023 0.78932669
Ge -7.05140242 11.39371297 9.31121353
Ge 10.58460040 11.07217529 0.54725833
Ge 3.27472932 0.27280279 10.97264250
Ge -4.25543161 14.78265561 -0.48590258
Ge 1.07887084 4.09062751 10.72904786
Ge 2.02958679 3.54224361 0.11060413
Ge -0.68487397 7.84977470 10.29884149
Ge -1.39549522 8.16768175 20.64958892
Ge -2.38180380 11.29080031 9.97081854
Ge -3.43381428 11.47030752 20.22773038
Ge -0.55145183 14.75381531 9.86274307
Ge 5.62047231 4.21500182 10.79751349
Ge 6.24087309 3.56652003 0.46057016
Ge 3.58940012 7.76900452 10.19840119
Ge 4.05103486 7.49913443 0.25404023
Ge 1.50416675 11.20240360 10.36935673
Ge 2.35080251 11.14142063 -0.14986126
Ge 3.61778121 15.10915819 10.29507375
Ge 12.59580528 0.39645624 1.33190083
Ge 9.54619732 4.32345274 11.37296869
Ge 10.82702886 3.75407587 1.02942555
Ge 7.85514305 7.50919213 10.85755687
Ge 5.75275769 11.54870776 10.43521569
Ge 6.11864823 11.17252500 0.09145986
Ge 1.90401735 0.88137677 3.86383005
Ge 0.78255383 1.48099811 13.82680204
Ge -0.35776724 4.91956210 3.53340643
Ge -0.68454405 5.60250751 13.78452714
Ge -2.09243069 8.66577359 2.60807845
Ge -3.36918352 9.15032769 13.35326754
Ge -4.33644844 12.24550750 2.60821321
Ge -5.13887293 12.88499303 13.56004465
Ge 6.17146219 1.22281859 4.23098974
Ge 5.01626824 1.73247080 14.70151707
Ge 4.00364944 5.00009543 3.96321637
Ge 3.43278065 5.59009826 14.45407065
Ge 1.78152491 8.55571132 3.22935960
Ge 1.16931566 9.09823855 13.85263975
Ge -0.09200973 12.27221915 3.09494898
Ge -1.12323447 13.10891839 13.10256416
Ge 10.76583727 1.47970546 4.56589311
Ge 9.54172046 1.67800984 14.79602253
Ge 8.27037755 4.85098241 3.96277629
Ge 7.65785087 5.11246830 14.39696078
Ge 6.34120954 8.79733148 3.82854003
Ge 5.52850463 9.06467108 14.36720234
Ge 3.20922498 12.76088087 14.17400945
Ge 14.73717075 1.09507258 4.74865805
Ge 13.67029551 1.87532048 14.97654988
Ge 12.54704296 5.00832896 4.78556641
Ge 12.05036152 5.28912210 15.06089040
Ge 10.58976034 8.50206091 4.26125109
Ge 9.64867322 9.39734788 14.36546531
Ge 8.06766919 12.70226852 3.41034848
Ge 7.40055813 13.17121707 13.94751276
Ge -1.00654399 2.81142448 17.14683589
Ge -2.66374515 6.13703667 6.94964376
Ge -3.50422578 6.74549408 17.10800855
Ge -4.53549026 10.13134871 6.19559895
Ge -5.51455431 10.51434804 16.90078631
Ge -6.65920108 13.47915618 6.12165470
Ge -7.86437291 14.03117336 16.81005816
Ge 3.73282733 2.27203979 7.48618033
Ge 3.26496168 2.98699131 17.95725030
Ge 1.42991333 6.12421551 6.81796678
Ge 0.75396947 6.25132715 17.73982209
Ge -1.20171396 10.45533365 17.25764341
Ge -2.33022067 13.77177724 6.06914598
Ge -3.66600824 14.30542041 16.99004652
Ge 7.89588163 2.48875151 7.67005420
Ge 7.29930106 2.92982282 18.45896503
Ge 5.90419464 6.51911922 7.56280323
Ge 5.39591725 6.82696606 17.99463771
Ge 4.07210074 10.35611960 7.04247814
Ge 3.14109061 10.60133120 17.48470870
Ge 1.56076342 13.90903785 6.42182990
Ge 0.75399196 14.26795915 16.99253164
Ge 12.34766847 2.45063068 8.09070323
Ge 11.40987133 3.02511854 18.58596339
Ge 10.46959711 6.09163996 7.62909671
Ge 9.56945746 6.79360839 18.26397256
Ge 8.41433829 10.18800884 6.84051437
Ge 7.22000162 10.36473734 18.04483041
Ge 6.19859164 13.93589067 7.26447481
Ge 5.12721827 13.88628333 17.67199796
Te -0.05882241 14.84907509 -0.42203288
Te 8.38072470 7.52100567 0.57716044
Te 4.02314825 12.63211591 3.47277725
Te -0.71610286 2.89325933 7.22262971
Te -0.31405139 10.08836245 6.49321508
Te 1.42961580 1.49793898 9.25482351
Te 0.82713847 1.73194477 19.42310775
Te -0.72595200 5.45367469 8.80225948
Te -1.34575644 5.29250381 19.22353221
Te -2.72437059 9.03741229 8.37408084
Te -3.44893142 9.14547993 18.85720711
Te -4.73880955 12.53407135 8.00467552
Te -5.84812740 12.97192087 18.44962737
Te 5.64381456 1.09177198 9.57119135
Te 5.02194471 1.89498105 19.79961202
Te 3.37473711 5.18602446 9.22298985
Te 2.86152417 5.14530791 19.77800672
Te 1.71971468 8.78838100 8.55617421
Te 0.82504597 9.20189597 19.29761892
Te -0.31818361 12.48836234 8.37499998
Te -1.41115499 12.80087998 18.83675316
Te 9.99346222 1.27443015 9.55217673
Te 9.33459368 1.79437754 20.13669105
Te 8.11803309 5.03295570 9.10905016
Te 6.92219411 5.34374629 19.78761212
Te 6.00999796 9.03469383 9.08897561
Te 5.08738893 9.29796343 19.62995995
Te 3.78095693 12.63398058 8.76621596
Te 2.84315953 12.90577875 19.23442051
Te 14.19557925 1.61055425 10.33097009
Te 13.51543679 1.67502640 20.48454086
Te 12.19830556 5.28707530 9.82511180
Te 11.43839232 5.48335951 20.15931231
Te 10.22602375 8.92067658 9.38737711
Te 9.47531248 9.32350781 19.69731192
Te 7.94524712 12.68120606 8.99506105
Te 7.08050931 13.05415524 19.62596423
Te -0.13013549 2.66866783 1.88241445
Te -1.14449124 2.75747228 12.36609479
Te -2.36531986 6.15896161 1.46663174
Te -2.92325524 6.41016095 11.99835245
Te -4.45064697 9.82912075 0.97369358
Te -5.03501751 10.37702390 11.51352700
Te -6.53703524 13.74912825 0.69720721
Te -7.22160168 13.81331420 11.54729737
Te 4.29640097 2.34701912 2.29658468
Te 3.31543051 2.67466123 12.49844678
Te 1.92497968 6.24026828 1.74337006
Te 1.56968214 6.66707599 12.34015913
Te -0.12875423 10.14172027 1.13823129
Te -0.94392737 10.29722361 12.17222395
Te -2.54467527 13.71168950 1.30343950
Te -2.99907472 13.71901811 11.28483347
Te 8.38463621 2.39752787 2.48516348
Te 7.81783637 2.65244309 12.86115557
Te 6.34958100 6.14054226 2.43922531
Te 5.65188143 6.45508488 12.61322146
Te 4.36523567 9.70117729 2.07936962
Te 3.26996618 10.36715097 12.32854177
Te 2.02577450 13.97960608 1.42171445
Te 1.25531595 13.60180956 11.86251008
Te 12.74836036 2.78698359 2.69443418
Te 11.74353241 2.89577936 13.05645898
Te 10.38721049 6.07914668 2.57566320
Te 9.83030761 6.52179954 12.97074114
Te 8.19328342 10.13435962 1.91364785
Te 7.74027812 10.28757273 12.36303164
Te 6.48580384 14.00132998 1.46679596
Te 5.29448520 14.08697750 12.41630799
Te -8.79388794 14.97108419 3.95711996
Te -1.11316418 0.43810858 15.95331047
Te 14.51734452 3.90595913 6.36030044
Te -3.09963842 4.16101984 15.70933653
Te -4.58472228 7.61765049 4.86884293
Te 11.71040723 7.75975849 16.55965500
Te 10.36022068 11.32705434 5.34848463
Te 9.54440853 11.30066471 16.13497876
Te -4.62064917 14.93562401 4.40625968
Te 3.01544301 0.47582868 16.38176581
Te 1.70075331 3.83420236 5.27142331
Te 0.84142648 4.34672801 15.70296255
Te -0.53806723 7.44387385 4.84249712
Te -1.15112192 7.82566676 15.99885478
Te -2.43103118 11.12778569 4.22492485
Te -3.29061873 11.84286360 15.39854674
Te -0.08204092 14.93696331 4.64307973
Te 7.38203397 0.56244686 16.25470873
Te 5.97728553 3.91740600 5.85424968
Te 5.22460058 4.09909891 16.34775804
Te 4.07306885 7.53997409 5.61914549