192
Time=60000.00000005 pbc="T T T" Lattice="17.27437111 -0.49542538 -0.80867030 -8.29946876 15.24043561 1.07135781 0.63685372 -0.83422660 20.98719316" energy=-816.44438115 virial="-12.88829094 -1.29367402 10.90249853 -1.29367402 -16.70589481 -0.52336706 10.90249853 -0.52336706 -5.67922873" stress="-0.00075463 -0.00023699 0.00199728 -0.00023699 -0.00145400 -0.00009588 0.00199728 -0.00009588 0.00056603" Properties=species:S:1:pos:R:3
Ge 17.42420448 -0.76385433 10.28238342
Ge -0.06685931 0.30503438 0.28405886
Ge -1.63221347 3.42565842 11.04615707
Ge -1.93191978 4.09167890 0.29707233
Ge 13.24878091 6.58533121 10.42028193
Ge 12.90793546 7.15043863 0.07110154
Ge -5.36681869 11.22457224 11.21470362
Ge -6.13607813 11.48999344 1.37873844
Ge -3.74719930 14.61930094 11.00391443
Ge -4.13265078 15.05826399 1.21269603
Ge 2.75147638 2.67380603 10.57803484
Ge 3.10662837 2.56084204 20.87779361
Ge 0.51481250 7.07841370 10.82448080
Ge -0.19958948 7.54036650 0.61397685
Ge -1.37026407 10.73134393 11.09745012
Ge -1.85246897 11.20906054 0.74557341
Ge 0.62582893 14.37192678 11.37374908
Ge 6.78176444 3.23629486 10.58501553
Ge 6.55840273 3.54933676 0.25971477
Ge 4.76521913 6.87568097 10.39760684
Ge 4.54137016 7.28907367 0.15915192
Ge 2.88975198 10.62871497 10.87957013
Ge 2.65305157 11.10902012 0.56053452
Ge 12.86095907 -0.18834626 10.28333364
Ge 13.02442722 -0.37909966 0.00140272
Ge 10.83834805 2.90271403 10.31099922
Ge 10.95968502 3.75411247 -0.25992123
Ge 9.24587147 6.81135950 10.34882087
Ge 7.19939333 10.63773794 10.84860830
Ge 6.62303931 11.25084327 0.35892813
Ge 2.48686542 1.00058181 3.89979875
Ge 2.55177238 0.34709667 14.00287286
Ge 0.20846723 5.05111713 3.93206627
Ge 0.85102149 4.85991492 14.34160931
Ge -1.42196658 8.74811092 4.28391355
Ge -1.36398906 7.99280832 14.25693705
Ge -3.69550166 12.35734104 4.42912983
Ge -3.67999647 12.01750047 15.28054178
Ge 6.98430316 0.60787651 3.22323812
Ge 6.76107420 0.08157006 13.68067387
Ge 4.33242569 4.59776261 3.42202833
Ge 5.00724730 4.38366063 14.06516996
Ge 2.42256264 8.52395423 3.83512818
Ge 2.95686744 7.93545487 14.66730637
Ge 0.74856586 12.43615942 4.32146088
Ge 0.51810048 11.99819324 14.56119706
Ge 11.22205352 0.85320992 3.23175306
Ge 11.21039230 0.25914023 13.49672568
Ge 8.89892121 4.31291253 3.56463583
Ge 8.77316635 4.20575112 13.95147282
Ge 7.32603531 8.37085434 3.67544621
Ge 7.26246788 7.82626661 13.96178977
Ge 4.94879711 11.55980851 14.51672676
Ge 15.19977656 0.98605641 2.68994725
Ge 15.68036785 0.43247086 13.68841562
Ge 13.22749079 4.39770649 3.46339286
Ge 13.31217171 4.26570951 13.92209357
Ge 11.30580573 8.27903551 3.56165574
Ge 11.24351454 7.75333817 13.75902380
Ge 9.17221161 12.23224778 4.07745044
Ge 9.04533939 11.92830546 14.49675279
Ge 0.71395337 2.11053839 17.63502573
Ge -1.99592129 6.18475728 7.47242711
Ge -1.65038009 5.83534364 17.90139593
Ge -3.59000877 9.83883520 7.33403481
Ge -3.88588591 9.58532096 18.49643362
Ge -5.87743572 13.50432185 7.63891978
Ge -5.78572418 13.03530603 18.88851098
Ge 4.46504842 1.68408049 7.06920859
Ge 5.10266965 1.81512631 17.62463388
Ge 2.79941919 5.93388903 7.04387313
Ge 3.05000762 5.51905235 17.74418812
Ge 0.74628696 9.51048942 18.30312278
Ge -1.20218924 13.44996172 7.81460105
Ge -1.25804545 13.00036510 18.44537024
Ge 8.91332984 1.78979765 6.82025665
Ge 9.36423296 1.58651822 17.49491156
Ge 6.49510881 5.48322391 7.12701590
Ge 7.19676009 5.21265614 17.65288274
Ge 4.86150769 9.56650741 7.36292650
Ge 5.28188093 9.55342804 18.22008165
Ge 2.86104090 13.35226377 7.59109462
Ge 2.91817652 12.95838232 17.88608116
Ge 13.61953871 2.08046153 6.64244667
Ge 13.45708911 1.49733239 17.31277470
Ge 11.00673778 5.64429706 7.62637422
Ge 11.15579808 5.14106478 17.39217195
Ge 8.88443625 9.43215332 7.13580672
Ge 9.25714229 9.08364789 18.18637042
Ge 7.00483856 13.37042324 7.49766134
Ge 7.38443210 13.10183210 18.04768728
Te 8.77662449 -0.22383867 -0.29030024
Te 8.66576648 7.17862264 0.11907028
Te 4.76306509 12.45452835 4.21012177
Te -0.05238158 2.23209609 7.46386728
Te 0.39672694 9.72994849 7.35127662
Te 2.55801751 0.65434227 8.68556533
Te 2.73392970 0.48340678 19.25191850
Te 0.08663170 4.61836844 9.30004082
Te 1.04337971 4.26681601 19.50742911
Te -1.92106364 8.33922792 9.40598347
Te -1.59255228 7.70637981 19.76752746
Te -3.69569829 12.24041966 9.57267897
Te -3.51117059 11.83565407 20.19771932
Te 6.75066930 0.68086957 8.65324115
Te 7.31246122 0.37612055 18.92924317
Te 4.73444390 4.47058069 8.99849163
Te 5.16666827 3.96275960 19.40506599
Te 2.55634443 8.34103703 9.09117008
Te 2.95774069 8.01973984 19.61959619
Te 0.68375883 12.16230989 9.56120460
Te 0.70332029 11.74758093 19.78713382
Te 11.08539288 0.67717981 8.59859293
Te 11.56573215 0.19210516 18.87444504
Te 8.88754455 4.31178242 8.74478784
Te 9.22407282 3.82835749 19.34401474
Te 7.02764704 8.02709166 8.79903294
Te 7.13702439 7.67390759 19.34152668
Te 4.85586090 11.81911074 9.26214301
Te 5.13991264 11.63193401 19.90664739
Te 15.08917953 0.32557756 8.39410451
Te 15.63744053 0.38278850 18.83828152
Te 13.37594121 4.22701483 8.28225810
Te 13.85216655 3.66783387 19.08244950
Te 11.38063770 8.24210971 9.02543687
Te 11.58487262 7.76971909 19.49295138
Te 9.17050304 11.78203841 9.05488550
Te 9.38085640 11.60271975 19.59473572
Te 0.06148789 2.56789021 1.95368599
Te 0.64067408 2.03637029 12.62315005
Te -1.95872420 6.31013113 2.28883796
Te -1.71591908 5.80193605 12.79071133
Te -4.10277753 10.04498212 2.52989695
Te -3.65902432 9.50416295 12.99699362
Te -6.18975143 14.01839685 2.89764650
Te -5.92513296 13.45090593 13.10619688
Te 4.42879578 2.21210726 1.86054173
Te 4.77053075 1.80228332 12.19417354
Te 2.19879944 6.14851549 1.92766539
Te 2.80006923 5.96451156 12.59880113
Te 0.26959885 9.94897125 2.06698224
Te 0.40782858 9.47162463 12.81443833
Te -1.96445181 13.78022286 2.66633521
Te -1.62724905 13.13643536 13.18307596
Te 8.60607149 2.22005319 1.78492487
Te 8.90096753 1.78216322 11.91311233
Te 6.35061147 6.05889100 1.83638007
Te 6.95300571 5.70689005 12.11888986
Te 4.54935880 9.49902269 2.02797678
Te 4.77934726 9.18152248 12.79218288
Te 2.58054670 13.72832670 2.46479816
Te 2.74848584 13.09062229 13.01394921
Te 13.11122797 2.18714443 1.35661527
Te 13.32013542 1.74354330 12.19466200
Te 11.09470854 5.74231501 1.63967969
Te 11.06879783 5.51151107 12.18290059
Te 8.92661033 9.89335925 2.14829398
Te 9.23087756 9.20430785 12.40133657
Te 6.80995744 13.79933215 2.21856698
Te 7.07657124 13.03889839 12.68131965
Te 17.20950409 -0.66223007 4.66453078
Te -7.57078413 14.54639454 17.08321070
Te 15.26970228 3.19740376 4.85392145
Te -1.50621363 3.23397481 16.14687820
Te -3.75144441 7.54649881 5.75606900
Te 13.46102335 6.49883535 15.60214395
Te 11.24550551 10.56348871 5.50044907
Te 11.40275417 9.99617297 15.98171365
Te -3.80507100 14.79517208 6.31752327
Te -3.28411170 14.39428599 16.92270746
Te 2.57483225 3.37309462 5.59957923
Te 2.72423854 3.11167004 15.73460454
Te 0.40774122 7.22304647 5.62998237
Te 0.68758185 6.80706067 16.09653611
Te -1.58015259 11.22720946 5.91136222
Te -1.60943949 10.72020248 16.62794792
Te 8.88815483 -0.40056897 5.14654076
Te 0.88939274 14.31928873 16.62168552
Te 7.03069384 3.18889065 5.16120133
Te 7.09013854 2.95720115 15.97548098
Te 4.79428376 7.06389930 5.46748329
Te 5.03973512 6.62220456 15.76830263
Te 2.56293326 10.86748007 5.55410340
Te 2.69079921 10.35446331 16.27637236
Te 13.17452917 -0.19864560 5.04085389
Te 13.68250596 -0.86968912 15.04454109
Te 10.97888996 3.23764137 4.98480940
Te 11.22462792 2.89392809 15.43448398
Te 9.09637396 6.95650044 5.37706694
Te 9.42017704 6.59572199 15.69050983
Te 7.00052505 10.90512020 5.69568417
Te 7.12837339 10.55583708 16.24495043
192
Time=70000.00000007 pbc="T T T" Lattice="17.28593047 -0.32219096 -0.67520276 -8.27836019 15.17168307 0.78500977 0.61864192 -0.85395644 21.10524904" energy=-816.10003424 virial="-25.51793810 -6.68107977 11.04586426 -6.68107977 -4.25527433 19.71209559 11.04586426 19.71209559 -8.59014903" stress="-0.00305012 -0.00121668 0.00201154 -0.00121668 0.00082199 0.00358974 0.00201154 0.00358974 0.00003257" Properties=species:S:1:pos:R:3
Ge -7.74902386 14.51452334 11.47926709
Ge 17.17685893 -0.22490965 -0.27436032
Ge 15.53397389 2.92396783 10.80529620
Ge -1.91273536 3.97580530 0.46900841
Ge -3.62104788 7.05144018 10.91071193
Ge 13.09872905 7.22300853 -0.23487721
Ge -5.53272979 10.92602497 11.33058481
Ge 10.86599872 11.28412191 0.35229511
Ge -3.76996885 14.64213897 11.29420512
Ge 4.32830590 -0.02242184 0.05964815
Ge 2.37845437 3.01438474 10.62048699
Ge 2.25182015 3.48542657 0.30606990
Ge 0.49700222 6.79881212 10.68703072
Ge 0.54006863 7.70174086 0.77906323
Ge -1.38914388 11.04688431 11.00229568
Ge -2.01602174 11.01662321 0.42308625
Ge 9.01457914 -0.40334826 10.21813918
Ge 7.01443691 3.37906112 10.44299714
Ge 6.26099890 3.67657201 0.05315394
Ge 4.77433773 7.09862037 10.94219337
Ge 5.29795451 6.92670135 21.02601942
Ge 2.55453208 10.83816143 10.63856769
Ge 2.40100412 11.45694936 0.53631376
Ge 13.26249090 -0.46346223 9.84796003
Ge 13.18878709 -0.13029565 -0.50530139
Ge 11.32176989 3.48196553 10.36972886
Ge 10.67661756 3.59790796 -0.13144004
Ge 9.28160961 6.93930631 10.47364067
Ge 6.87114136 10.59487873 10.51067423
Ge 7.20133175 10.31072195 21.00449822
Ge 2.01175886 1.45602591 3.71041798
Ge 2.54088447 0.70692891 14.43961879
Ge 0.16939172 4.98153776 4.09184904
Ge 0.85106616 4.52690971 14.23474618
Ge -1.61131536 8.78935615 4.27146472
Ge -1.57476554 8.19784946 15.01916640
Ge -3.98419357 12.16994236 4.06431700
Ge -3.52366827 11.96798915 14.95551373
Ge 6.30464046 0.87426392 3.56332838
Ge 6.90639621 0.90577983 13.98706635
Ge 4.75767460 5.16031421 3.72983310
Ge 4.70226314 4.56058589 14.61418350
Ge 2.32148592 8.32831569 3.88433658
Ge 2.71664995 7.90875349 14.37194978
Ge 0.16857094 12.70506336 3.74505870
Ge 0.92842079 12.00030450 14.53951818
Ge 10.92460243 1.24741689 3.30401617
Ge 11.14343444 0.48124268 13.93586499
Ge 8.92554032 4.63248480 3.31156664
Ge 9.33581346 4.51119522 14.22540018
Ge 6.57988611 8.41159756 3.91136800
Ge 7.17223694 8.32555512 14.19945067
Ge 5.12683542 11.94955231 14.04576676
Ge 15.18401797 0.59975641 3.05360371
Ge 15.20700173 0.22006325 13.41144292
Ge 13.44534859 4.51633681 3.09835216
Ge 13.52261962 4.06603652 14.25719987
Ge 11.29061505 8.16821592 3.33576277
Ge 11.24211153 7.90198556 13.82420917
Ge 9.23559847 12.08674489 3.71436445
Ge 9.38827135 11.95821502 14.29915705
Ge 0.95329241 1.92780798 17.86035567
Ge -1.64152559 5.65903497 7.37002019
Ge -1.58219437 5.36236187 17.71496438
Ge -3.54929073 9.64874073 7.39418022
Ge -3.73805159 9.40571398 18.61081197
Ge -5.87020208 13.48214097 7.90589900
Ge -5.78685826 13.17417586 18.06179224
Ge 4.39156968 1.94562062 6.93331627
Ge 5.24363880 1.71436309 17.98794168
Ge 2.73050202 5.86948338 7.72176897
Ge 2.41773969 5.70239959 17.97482574
Ge 0.86262401 9.80787249 18.11306885
Ge -1.69526250 13.34960011 7.58191271
Ge -1.82381450 12.94516304 18.11320972
Ge 8.89898099 2.46635598 6.53391837
Ge 9.08143354 1.72809746 17.52817049
Ge 6.57630697 5.94206149 7.16809926
Ge 7.16690466 5.79597403 17.56602511
Ge 4.71669619 9.98575515 7.32462391
Ge 5.06784984 9.48194657 17.90429614
Ge 2.62318026 13.77472107 7.13441591
Ge 2.90794120 13.18323550 17.99250773
Ge 13.05970087 1.91819073 6.75766505
Ge 13.54275267 1.36135463 17.45493106
Ge 11.35393253 6.04913098 6.70482381
Ge 11.39303004 5.52318735 18.16878894
Ge 9.23350323 9.56058623 6.89820915
Ge 9.59664409 9.90693184 17.78406264
Ge 7.38778543 13.23719834 7.33157490
Ge 7.30340721 13.10328738 17.99358642
Te 0.41674012 14.94748112 0.72505132
Te 8.82373253 7.54953377 0.04162048
Te 4.40943639 12.19515254 3.97166667
Te 0.22395141 2.11235312 7.07471999
Te 0.46703664 9.51207674 7.47455944
Te 2.15782093 0.44547282 8.83446160
Te 2.95906342 0.38821210 19.40253228
Te 0.52752329 4.54868765 9.05075822
Te 0.75446357 4.09786057 19.43180792
Te -1.71234305 8.25866521 9.25093640
Te -1.09883117 7.94089620 19.65778424
Te -3.49826735 11.96265330 9.67838919
Te -3.44986245 11.64066354 19.96050503
Te 6.59442703 0.64647825 8.76217011
Te 7.05053051 0.05551537 19.21043265
Te 4.70834831 4.21304429 9.02055716
Te 4.92417828 3.86253248 19.57894397
Te 2.92111771 8.41695462 9.06939340
Te 3.12008321 8.04816224 19.43969648
Te 0.53616305 12.31608284 9.44565436
Te 0.77797298 11.50314231 20.06533283
Te 11.03290284 0.86812157 8.21829350
Te 11.53559065 0.20485055 19.12741984
Te 8.97944749 4.40993822 8.84911208
Te 9.43356571 3.84559940 19.35456963
Te 7.07471784 8.03441011 9.31196917
Te 7.37111289 8.16860974 19.16410190
Te 5.01674294 12.07196344 9.05168510
Te 5.07255936 11.81706970 19.80096295
Te 15.32964905 0.78959672 8.28567755
Te 15.77690238 0.29409885 18.88991242
Te 13.06133453 4.65801689 8.46416642
Te 13.81379693 3.87475954 19.06950600
Te 11.36342235 8.21092062 8.85859100
Te 11.59545842 7.85412770 19.43472932
Te 9.03798339 11.81433719 9.16653234
Te 9.44436006 11.73607102 19.59642708
Te 0.07164599 2.54934775 1.99130670
Te 0.41855283 2.09141901 12.73900025
Te -1.78485966 6.28270649 1.91760968
Te -1.54197194 5.74603713 12.88318787
Te -4.10982462 9.94472227 2.47575633
Te -3.79721738 9.35094373 12.90923722
Te -6.04217399 13.89798490 2.73730745
Te -5.79396016 13.37116070 13.05949221
Te 4.25072388 2.25588170 1.84635738
Te 4.74071446 1.64758725 12.33136016
Te 2.26538740 5.96426663 1.79000249
Te 2.77876867 5.54152796 12.49358716
Te 0.26395009 10.03134785 2.26890520
Te 0.89713183 9.79336447 12.85643365
Te -2.04435164 13.32167200 2.37381317
Te -1.66992364 13.33639575 12.96455892
Te 8.87923815 2.35189108 1.79186959
Te 9.15030925 1.90741310 12.37378836
Te 6.81866446 6.00492373 1.90161406
Te 6.90266749 5.40861881 12.44084895
Te 4.59254588 9.64597908 2.07428183
Te 4.89672444 9.30445822 12.62422861
Te 2.50317091 13.90458124 2.32305844
Te 2.77381136 13.16325905 12.89210627
Te 13.24036057 2.40177416 1.32061581
Te 13.32487767 1.80857122 12.23366055
Te 11.09417084 5.90661266 1.75623038
Te 11.50864765 5.31660558 12.45826644
Te 9.00536291 9.96158428 1.92276833
Te 9.11399802 9.19429278 12.44474234
Te 7.03929795 13.71688320 1.89327594
Te 7.09555677 13.11017859 12.59533141
Te 9.28618840 14.40343935 5.64677783
Te 0.41765419 -0.54907614 16.08244026
Te 15.28545302 3.32300915 4.79030923
Te -1.52479662 3.18692299 16.21462751
Te -3.86930349 7.56857735 5.80635334
Te 13.46362505 6.50792432 15.72349634
Te 11.26394473 10.50348015 5.25611432
Te -5.63431733 10.72017075 16.43544093
Te -3.84348687 14.68152672 6.26742723
Te -3.57209508 14.36185560 16.52979440
Te 2.59566197 3.62822469 5.36413503
Te 2.73903675 3.06126857 16.17623997
Te 0.29642206 7.10041448 5.68385707
Te 0.79157102 6.82808776 16.27637241
Te -1.75471389 11.12824549 5.83094194
Te -1.49463277 10.42764012 16.41594100
Te 8.93929195 -0.36717963 4.73447891
Te 0.94231096 14.22937935 16.51890892
Te 6.60907979 3.29459081 5.16757501
Te 6.76099127 3.04307560 15.85997298
Te 4.56037682 7.24776666 5.61726025
Te 5.05604230 6.78368464 16.13710336
Te 2.50597081 10.93890161 5.75865165
Te 2.87180687 10.65226873 15.95611579
Te 13.17143550 -0.30822600 5.17986095
Te 13.43491575 -0.81250637 15.33429806
Te 11.09690832 3.47581149 4.97985436
Te 11.33852331 2.86615956 15.91563219
Te 8.69583401 6.99189832 5.70192103
Te 9.27028549 6.68878453 15.88111725
Te 7.02772312 10.74300684 5.42102172
Te 7.24536570 10.75193889 15.72056308
192
Time=80000.00000008 pbc="T T T" Lattice="17.15306105 -0.27290572 -0.56952287 -8.42374944 15.05939101 0.87688810 0.56156814 -0.92293156 21.06773340" energy=-816.70451975 virial="-6.25022149 8.13251003 1.24881159 8.13251003 -9.85584426 4.33687083 1.24881159 4.33687083 -13.99091300" stress="0.00046565 0.00150347 0.00023087 0.00150347 -0.00020093 0.00080176 0.00023087 0.00080176 -0.00096538" Properties=species:S:1:pos:R:3
Ge 0.37439523 -0.40908063 10.76948223
Ge 0.72266917 -0.77711623 20.90945429
Ge -1.79584406 3.70126878 10.98980635
Ge 14.92127318 3.56461510 -0.14325673
Ge -3.79929290 7.37558155 11.00514444
Ge 12.74236401 7.13701338 0.37518363
Ge -6.00899482 10.90727077 11.09249531
Ge 11.33851922 10.11281319 21.14251978
Ge -3.68085058 14.22418595 11.54824222
Ge -4.09226319 14.80616733 0.90662708
Ge 2.56793553 3.06796349 11.06303193
Ge 1.84909928 3.60844267 0.34208645
Ge 0.54153321 6.94349934 10.82989516
Ge 0.54490106 7.60327624 0.86440093
Ge -1.61583860 10.98050271 11.24357087
Ge -1.64569948 11.18299210 0.66931464
Ge 8.77992532 -0.50090226 10.38503353
Ge 6.83388061 2.98834509 10.34148797
Ge 6.64795013 3.58947738 0.14299177
Ge 4.49840849 6.98128315 10.85265414
Ge 4.13516679 7.30789466 0.48427800
Ge 2.65009390 10.87042558 10.76955877
Ge 2.33700965 10.83492568 0.56181769
Ge 13.17960681 -0.48918206 10.61037673
Ge 13.03133440 0.00235597 -0.19945427
Ge 11.06350604 3.31545883 10.37774166
Ge 10.33799120 3.51806429 -0.12837447
Ge 8.95000658 6.69991028 10.43782417
Ge 6.90304524 10.86815137 10.63147104
Ge 6.48050890 11.26852714 0.81441233
Ge 2.11977348 1.11436050 3.77943127
Ge 2.74111892 0.78162158 13.91607085
Ge 0.01194885 4.82997080 4.03699945
Ge 0.56983475 4.47659079 14.49674973
Ge -1.89615462 8.71224330 4.20511548
Ge -1.39107407 8.27400729 14.79291716
Ge -4.20695781 12.64942205 4.40709409
Ge -3.74923424 11.59584315 15.02750761
Ge 6.25316648 1.21455152 3.54605394
Ge 7.14115263 0.48673353 14.01886986
Ge 4.53507162 4.67105543 3.63420832
Ge 4.85603130 4.36701034 14.34047226
Ge 2.28296724 8.62474626 4.04904689
Ge 2.62841080 8.26815770 14.36902146
Ge 0.40907683 12.59608589 4.09692473
Ge 0.76836042 11.69057352 14.82180110
Ge 10.96912328 1.04655821 3.27021389
Ge 10.93360435 0.25007083 13.55484056
Ge 8.54558427 4.47934386 3.62743502
Ge 9.17949291 4.19190041 13.91209009
Ge 6.47462357 8.20085745 3.98996505
Ge 7.22003565 7.98502292 14.36771005
Ge 4.87014763 11.57537605 14.33153430
Ge 15.09656483 0.60663209 3.14672807
Ge 15.25557389 0.49355544 13.93630134
Ge 13.01802414 4.52067725 3.08617715
Ge 13.64927511 4.03941387 13.87074566
Ge 11.21443074 8.70404244 3.49151432
Ge 10.98291661 8.18803660 13.98836050
Ge 8.83558437 12.17232379 4.01450275
Ge 9.17760598 11.82796197 14.36788085
Ge 0.51110192 1.79013165 18.04830912
Ge -1.69973032 5.92736706 7.62480928
Ge -2.20925425 5.46868039 17.76477024
Ge -3.81781297 9.80203270 7.60672533
Ge -3.66913491 8.64482304 18.53335475
Ge -6.11426873 13.56005082 7.89239974
Ge -5.69008996 12.84256743 18.40930927
Ge 4.04723329 2.11026011 7.29977375
Ge 5.22521988 1.84601463 17.86423206
Ge 2.24953809 5.76434056 7.52453046
Ge 2.63379684 5.43632642 17.88706261
Ge 0.41441248 9.27328617 18.53822207
Ge -1.67957778 13.22067093 7.74644343
Ge -1.52954912 13.23602847 18.20760770
Ge 8.83851308 2.22799440 7.05005082
Ge 9.36142060 1.22149304 17.41532437
Ge 6.28776619 6.03809769 7.39284994
Ge 6.88596454 5.34619176 17.87631463
Ge 4.58697850 9.86997013 7.56160641
Ge 5.05276906 9.17729237 18.13629200
Ge 2.33729277 13.69299957 7.73703743
Ge 2.83549250 12.98242802 18.08802643
Ge 12.94600137 2.16995845 6.92659547
Ge 13.22571828 1.38513514 17.65990690
Ge 10.89212754 6.09232060 6.88385220
Ge 11.39093963 5.39330646 17.54639581
Ge 8.43376929 9.45064120 6.87404146
Ge 9.11189138 9.15203710 18.14853040
Ge 6.74404822 13.42871475 7.64445874
Ge 7.00083762 12.73431586 17.87474757
Te 8.49508099 -0.12902990 0.07384975
Te 8.55640085 7.12503888 0.19241952
Te 4.57344864 12.36957302 3.59786621
Te 0.11021597 2.07624867 7.29096060
Te 0.28040900 9.91065480 7.50744878
Te 2.27134278 0.85489814 9.08087810
Te 2.61325897 0.38732514 19.30586457
Te 0.16576735 4.70788699 9.19909064
Te 0.46735650 4.03802382 19.87645737
Te -1.92547576 8.35067902 9.27066612
Te -1.37331090 7.80327040 20.17187808
Te -3.84591002 12.05267671 9.59271978
Te -3.31195651 11.73719902 20.00774343
Te 6.73925832 0.76374712 8.89937812
Te 7.06902773 0.23795947 19.06807306
Te 4.64117149 4.30065189 9.07175615
Te 5.05886010 4.09744939 19.57975308
Te 2.62449467 8.35063608 8.99448540
Te 2.74709848 7.68429867 19.82222219
Te 0.40880390 12.11573319 9.44720552
Te 0.53940286 11.55624390 20.00541460
Te 10.84578406 0.70022652 9.02754477
Te 11.24513586 0.11831527 19.09343255
Te 8.80958340 4.56040296 8.77151109
Te 8.95733375 3.59001586 19.19966791
Te 6.84599988 8.19584557 9.14466755
Te 7.25951018 7.68478805 19.55305371
Te 4.85817394 12.25604942 9.55378648
Te 4.58722277 11.33574570 19.86532809
Te 14.84970629 0.55283300 8.55218428
Te 15.50262006 -0.08971328 18.93151985
Te 13.26432387 4.54922844 8.65924935
Te 13.36020586 3.74534368 19.15848976
Te 11.04035723 8.25410103 9.00611533
Te 11.33495714 7.62980512 19.49576930
Te 9.02646960 11.88101188 9.21002610
Te 9.18452229 11.25717719 19.70097497
Te 0.14751938 2.41566958 2.22540083
Te 0.31656587 1.84983621 12.56020460
Te -2.05138475 6.17442799 2.17156288
Te -1.73635527 5.85700395 12.78614055
Te -4.06495980 9.73825160 2.25095799
Te -4.02573741 9.53732123 12.76353065
Te -6.20465301 13.71132554 2.36831670
Te -6.00607959 13.11115604 12.94259345
Te 4.21945172 2.13724707 1.83574793
Te 4.60870384 1.83982686 12.45819937
Te 2.28708503 5.96361752 2.08992927
Te 2.34883194 5.63413497 12.50555175
Te 0.20660721 9.84746783 2.45567567
Te 0.43816724 9.31210677 12.62812341
Te -2.29065056 13.52138816 2.50013372
Te -1.34828430 13.28376295 12.95968072
Te 8.63621833 2.38882428 1.84186557
Te 8.92780808 1.74336147 12.14350289
Te 6.50803749 5.94848415 1.94457303
Te 6.83683532 5.63859221 12.57727257
Te 4.64744731 9.54517787 2.15363798
Te 4.55841681 9.39877383 12.44908199
Te 2.28219639 13.78270588 2.32548458
Te 2.57664389 13.01313060 12.83192299
Te 12.98677236 2.29754429 1.33881422
Te 13.04980341 1.81066934 12.24849715
Te 10.63576896 5.99228820 1.82411301
Te 11.31468780 5.39519640 12.50053595
Te 8.89511472 9.90981494 2.01850423
Te 8.83267297 9.14445019 12.44751337
Te 6.79919308 13.81099107 1.95912955
Te 7.06481789 13.06701314 12.75191098
Te 8.88135948 14.48347380 5.78802146
Te 9.16631364 13.72376052 16.44336190
Te 14.97748017 3.19902551 5.07982604
Te 15.39235697 2.63684282 15.74253943
Te -3.91422051 7.51250180 6.04854430
Te -3.82853059 6.91871573 16.23837375
Te 10.85067117 10.93381542 5.61626364
Te 11.47412144 9.92996154 16.18367394
Te 4.49127371 -0.17374307 5.43890902
Te -3.89683250 14.17310348 16.50656849
Te 2.45160732 3.87256641 5.44986661
Te 2.48346029 2.62281761 16.03265834
Te 0.27166176 7.16763819 5.79124545
Te 0.38702389 6.51321014 16.72330714
Te -2.16951668 11.13296250 5.76829775
Te -1.61395487 10.53884913 16.51447953
Te 0.30602936 14.64509370 6.19629992
Te 0.48968686 13.98850904 16.30138407
Te 6.54257236 3.51278330 5.51221717
Te 6.85288596 2.78298853 15.64411956
Te 4.65076767 7.10763589 5.59651922
Te 4.64416512 6.77731485 16.16178171
Te 2.68947694 10.94969444 5.67349860
Te 2.69771400 10.51767111 16.25049641
Te 13.06516865 -0.35496035 5.20721617
Te 4.87689772 13.95865043 16.14843859
Te 10.84213059 3.54294570 5.21588087
Te 11.21035939 2.43292961 15.53110690
Te 8.83510697 7.13517389 5.25268203
Te 9.12158220 6.54063220 15.95879513
Te 6.63882102 11.00672735 5.48474834
Te 7.10479815 10.16930532 16.32762690
192
Time=90000.00000003 pbc="T T T" Lattice="17.30287786 -0.46980624 -0.66249316 -8.16830073 15.13314931 1.17057891 0.99576078 -1.20168317 21.07354520" energy=-816.02077723 virial="-22.29828263 4.54134333 -9.99399714 4.54134333 -4.69903107 10.43213841 -9.99399714 10.43213841 -6.95462176" stress="-0.00247573 0.00083102 -0.00182881 0.00083102 0.00074477 0.00190898 -0.00182881 0.00190898 0.00033202" Properties=species:S:1:pos:R:3
Ge 9.52513709 14.04427984 11.04065671
Ge 9.16825645 14.55816579 0.80491579
Ge 15.64906176 2.57317945 10.11334557
Ge 16.25519631 1.91512419 20.50335506
Ge 13.74332043 6.26236919 10.31930139
Ge 13.19210516 7.14585175 -0.01863689
Ge 11.71396859 10.13382133 11.00061600
Ge 10.78823184 11.14819426 0.27135405
Ge -3.56306899 14.32911812 11.51379411
Ge -3.43660300 14.89428548 1.17654234
Ge 2.83205786 2.75556864 10.76547838
Ge 2.38345104 3.92253147 0.38713231
Ge 0.94377056 6.33118819 10.64881349
Ge 0.18243629 7.89400364 0.73364785
Ge -1.49615175 10.25885826 10.96324672
Ge -1.91895675 11.11994898 0.89406166
Ge 1.11503451 14.03323814 11.56593478
Ge 7.20933221 2.73330901 10.38816247
Ge 7.60785181 2.27549737 20.90720905
Ge 4.87509833 6.84807571 11.00530569
Ge 4.58835515 7.47681973 0.35455482
Ge 3.01827356 10.30486211 11.26317106
Ge 2.79657823 11.34354448 0.58727506
Ge 13.51272006 -0.83750687 9.77214439
Ge 12.92718179 -0.31760951 -0.12898379
Ge 11.14675443 3.07771136 10.55179223
Ge 10.95157267 3.47347724 -0.11038926
Ge 9.82049524 6.19246161 10.71904251
Ge 7.11606346 10.43247783 11.10080714
Ge 7.49141875 9.69221159 21.42991502
Ge 2.20721704 0.77914963 3.52074379
Ge 3.06378200 0.86670965 14.08869316
Ge 0.81152436 5.13299809 4.37255060
Ge 0.69499923 4.24112880 14.42279970
Ge -1.72697424 8.63247719 3.86449857
Ge -1.17029314 8.09354649 14.99406149
Ge -3.66895763 12.37774068 4.47151878
Ge -3.24892470 11.56717708 15.07343644
Ge 6.62279563 0.80581118 3.47938433
Ge 6.96493049 -0.16084286 13.83361814
Ge 4.61804333 4.73799847 3.45399078
Ge 5.33845469 4.12110233 14.29121774
Ge 2.58079270 8.49263474 4.25884802
Ge 2.75589476 7.64205610 14.50740805
Ge 0.24574761 12.17701191 4.38120999
Ge 1.16545499 11.37801731 14.81262725
Ge 10.80056531 0.66060151 3.00413592
Ge 11.64723963 0.45849052 13.49709475
Ge 9.06591823 4.24772240 3.25951234
Ge 9.36124270 3.67566683 14.14212364
Ge 6.57783564 8.34988779 3.89151900
Ge 7.40040044 7.49863837 14.40503797
Ge 5.22058424 11.55905715 14.99996426
Ge 15.59965491 0.22472529 2.92083558
Ge 15.58367036 0.02732015 13.74792050
Ge 13.41246641 4.52288882 3.11570607
Ge 14.22648448 4.09838791 14.21653510
Ge 11.22462735 8.43037404 3.48374849
Ge 11.80910093 7.70984522 14.65567805
Ge 9.36234435 11.65325761 4.09813872
Ge 9.85765219 11.50226215 14.67403673
Ge 0.92567338 1.58809314 18.00107342
Ge -1.94230825 5.51587686 7.43459530
Ge -0.89771476 5.25817422 18.35607058
Ge -3.51543438 9.51781668 7.92709083
Ge -3.35800945 9.07584242 18.77729849
Ge -5.66617025 12.97868844 8.24121399
Ge -5.60318147 13.14338683 19.34480977
Ge 4.95138575 1.96986308 7.04180645
Ge 5.10205212 1.17410121 17.69940409
Ge 2.81150876 5.10203701 7.48419583
Ge 3.26185497 5.45340114 18.25100519
Ge 0.99843847 9.08712899 18.36516660
Ge -1.49212776 13.16322599 7.81196879
Ge -1.12169091 12.85421866 18.43289120
Ge 9.31201039 1.91509422 6.78172805
Ge 9.56229898 1.07307082 17.22918011
Ge 6.79071760 5.78108213 7.22421847
Ge 7.42150901 4.99829307 17.70974980
Ge 4.96094805 9.14953566 7.72299511
Ge 5.52043863 8.71368103 18.15807809
Ge 2.92296131 13.17053742 7.82666959
Ge 2.93952834 12.87009892 18.24504578
Ge 13.42607037 1.59261293 6.41334760
Ge 13.60766348 1.22254982 17.24298285
Ge 11.54083926 5.64920359 6.76070128
Ge 11.74051192 5.16917633 17.69141147
Ge 9.24432431 9.13595647 7.29250634
Ge 9.69890918 9.13810758 17.94178399
Ge 7.26018610 12.68438641 7.72179491
Ge 7.64835322 12.80287980 18.10045574
Te 8.61095079 -0.16531342 -0.26381077
Te 8.74362043 7.21516680 0.22383277
Te 4.71821574 12.04309621 4.09615304
Te 0.47315823 1.99389418 7.12903436
Te 0.60623742 9.77762487 7.85512552
Te 2.76242492 0.56807830 8.82768665
Te 3.36156170 0.21744428 19.68336221
Te 0.74481836 4.16318288 9.29671120
Te 1.30224689 4.06372595 20.05160438
Te -1.55598127 7.82316049 9.34974293
Te -0.88403192 7.62861743 20.03709590
Te -3.59957162 11.86923749 9.78791908
Te -3.15715452 11.40994650 20.66395071
Te 6.87127870 0.46898233 8.62088218
Te 7.50369003 0.02759134 19.10775583
Te 4.93113645 4.18145664 9.15303816
Te 5.46957831 3.64183976 19.47749914
Te 2.90565406 8.30737169 9.57901726
Te 3.60712240 7.75676254 20.12193662
Te 0.87097708 12.05615658 9.56376802
Te 1.37200171 11.30476031 19.95476065
Te 11.18907654 0.16861393 8.69678397
Te 11.72556511 0.00320695 18.98353212
Te 9.10206566 4.17188650 8.82075693
Te 9.76525918 3.69895991 19.28061350
Te 7.26155255 8.25901307 9.21832843
Te 7.66669986 7.32938772 19.55200114
Te 5.02484453 11.78726392 9.41012212
Te 5.47805294 11.19882948 19.88398447
Te 15.50540391 0.27546457 8.32955370
Te 16.30918268 -0.33317391 19.10902100
Te 13.64272835 3.92274311 8.68816981
Te 14.18604547 3.38892719 19.15067470
Te 11.82712078 7.79018650 9.03086879
Te 12.01198156 7.24618303 19.57854615
Te 9.55407337 11.65098482 9.42026782
Te 9.78282797 11.15082843 19.89635190
Te 0.26117818 2.20668139 2.02748551
Te 0.68982613 1.72250792 12.75851170
Te -1.89337830 6.37145532 2.46012628
Te -1.19786524 5.77832805 12.92124427
Te -3.84424789 9.93362440 2.31505324
Te -3.36475504 9.42598133 13.52227832
Te -5.88792925 13.88504641 2.78727184
Te -5.49193423 13.31156294 13.61496954
Te 4.72306825 2.31672397 1.77623163
Te 5.10663753 1.71708931 12.44435514
Te 2.35164492 6.20555405 2.38867159
Te 3.10262027 5.61720892 12.82061819
Te 0.57438411 9.69482063 2.76026091
Te 0.84010448 9.10623282 13.19090817
Te -1.79206084 13.57254607 2.94566394
Te -1.40331244 12.86902067 13.35049844
Te 8.90736136 2.19703504 1.52474743
Te 9.41911236 1.58819312 12.11418345
Te 6.73671037 6.06431329 1.93244846
Te 7.41421903 5.27533664 12.53959099
Te 4.80559815 9.55741073 2.21607755
Te 5.12013135 9.16135725 13.07174018
Te 2.77023876 13.51458986 2.53278015
Te 3.08743776 12.92742357 13.39806430
Te 12.82091043 1.99821904 1.27693580
Te 13.80182963 1.69181209 12.22477582
Te 11.01520965 5.76184526 1.82724696
Te 11.50788543 4.90592830 12.63382291
Te 8.76248005 9.58154115 2.23387769
Te 9.47583749 8.81238859 12.82040760
Te 6.98493262 13.16829104 2.35854866
Te 7.53896004 12.95230922 13.17370689
Te -7.78127033 14.61647318 6.37251197
Te 0.84266140 -0.54298071 16.03610320
Te -1.60999088 3.57652131 5.56740104
Te -1.23669686 2.94654885 16.16759747
Te 13.50490954 6.72649501 5.40252672
Te -3.20718809 6.73867893 16.79722355
Te 11.26803281 10.45756576 5.80722744
Te -5.29947161 10.63474444 17.11221271
Te 4.56934895 -0.23128064 5.12750533
Te 4.96602328 -0.93259824 15.69250296
Te 2.62395105 3.41547664 5.50061246
Te 3.19647219 2.75931219 16.37350569
Te 0.69130909 7.13375698 6.03548934
Te 1.27142945 6.67476620 16.57752796
Te -1.79413993 10.98635443 6.11159065
Te -1.15302015 10.22449471 16.94813842
Te 8.92205215 -0.54116868 5.13933400
Te 0.90327027 13.92307937 16.83986572
Te 7.01238568 3.44540055 5.15299551
Te 7.26252452 2.39424060 15.76088712
Te 4.79753830 6.99698783 5.81947806
Te 5.31542460 6.39023557 16.29372739