192
Time=60000.00000005 pbc="T T T" Lattice="17.09307909 -0.07513720 0.16089481 -8.59612500 14.91803945 -0.40924116 -0.32242915 0.56726608 21.26337414" energy=-815.91900137 virial="6.55116718 7.86410453 -6.84919235 7.86410453 -4.70740039 -6.70160661 -6.84919235 -6.70160661 -8.79619477" stress="0.00285995 0.00145238 -0.00126494 0.00145238 0.00078067 -0.00123768 -0.00126494 -0.00123768 0.00002554" Properties=species:S:1:pos:R:3
Ge -8.58541945 15.11351753 10.37028748
Ge 16.88183992 0.05846672 0.58695578
Ge 14.71149408 3.84246715 10.84540552
Ge -2.10393722 3.75282315 -0.02777191
Ge 12.58580688 7.39624296 10.66522182
Ge -4.34831643 7.93936663 0.33118094
Ge 10.55972694 11.17263016 10.28636269
Ge -6.35829737 11.40838239 -0.28419093
Ge -4.50804908 15.00543120 10.63065272
Ge 4.36259437 -0.00401295 0.14729140
Ge 1.64876090 3.87516362 10.83217727
Ge 2.49338635 3.43815427 -0.03577607
Ge -0.04529653 7.57043698 10.55180164
Ge 0.00584523 7.73529665 0.30169110
Ge -2.24801008 11.35001597 10.62277536
Ge -2.12885196 11.05841277 0.09763384
Ge 8.63558732 0.26370161 10.63152930
Ge 6.00112365 4.17630995 10.67254419
Ge 6.21354845 3.43489528 0.17738635
Ge 3.91335052 7.76065905 10.21055647
Ge 4.19980820 7.51347082 0.23029324
Ge 1.81521074 11.85037816 10.36084420
Ge 1.86675150 11.29581865 0.01948522
Ge 12.94196294 0.28865200 10.65673971
Ge 4.19559396 14.69470940 -0.17698936
Ge 10.37704746 4.01615729 10.74370911
Ge 10.98679253 3.76558287 0.31688786
Ge 8.39447580 7.75066767 10.64432176
Ge 6.03924136 11.52529349 10.40454451
Ge 5.86566375 11.80090497 20.83196601
Ge 1.62100915 1.38076586 3.94449691
Ge 2.11134830 1.80916935 14.38538807
Ge -0.23554782 5.25015800 3.63802148
Ge -0.14469089 5.25658910 13.89956708
Ge -2.31572848 8.95496339 3.81567526
Ge -2.84633087 8.91572554 14.44651453
Ge -4.39956386 12.83709416 3.51316582
Ge -4.41159238 12.44605451 13.82101517
Ge 6.41369588 1.50766329 3.60926029
Ge 6.52681456 1.20304557 14.38977252
Ge 4.28748324 4.91326704 3.38960763
Ge 4.19097475 5.17840699 14.01752970
Ge 2.05772132 8.68839439 3.67211589
Ge 1.94814797 9.09721650 14.12068298
Ge 0.13045860 12.45599433 3.50634917
Ge -0.08348219 12.70841183 13.91082039
Ge 10.22588472 1.21465125 3.81108092
Ge 10.52754984 1.47784760 14.16700379
Ge 8.53157319 5.01132723 3.69157915
Ge 8.47870385 5.39888493 14.21596624
Ge 6.20736501 8.90754226 3.37047589
Ge 6.31253272 9.06800667 14.10126620
Ge 3.91140942 12.48845449 14.23871297
Ge 14.87147475 1.40036529 3.91544565
Ge 14.80258560 1.58527349 14.66635688
Ge 12.55938979 4.82373484 3.52890205
Ge 12.54943409 4.99617149 14.11310064
Ge 10.55593693 8.79666717 3.53968976
Ge 10.42966964 8.97978353 14.05057778
Ge 8.47980072 12.47957651 3.51945675
Ge 8.16280965 12.72621826 14.03698123
Ge -0.48312996 3.25068569 18.15890141
Ge -2.62788584 6.04069511 7.40507510
Ge -2.04290084 6.66924150 17.53128279
Ge -4.50315132 10.12394534 6.82328410
Ge -4.77644530 9.98610949 17.38571998
Ge -6.58447251 14.01874519 6.53708084
Ge -6.63461248 13.81947711 17.67823298
Ge 3.87949679 2.86588021 7.35942910
Ge 4.28184223 2.83975931 17.70471279
Ge 2.01378073 6.29501517 7.03126824
Ge 1.87030554 6.71408213 17.63196205
Ge -0.45672659 10.47481678 17.99098407
Ge -2.36427244 14.18339365 6.90598921
Ge -2.44674568 14.11959684 17.61600313
Ge 8.23010632 2.47346108 6.89948690
Ge 8.24899035 2.81017910 17.90178411
Ge 6.43321134 6.12848616 7.15268810
Ge 6.20113976 6.59700842 17.56061807
Ge 4.31107524 9.95304346 7.04451211
Ge 4.13662536 10.06217217 17.61632703
Ge 1.82334170 13.72312447 6.95897613
Ge 1.57869971 13.68485995 17.72471920
Ge 12.80039778 2.32749613 7.53338014
Ge 12.17387098 2.95803562 18.31797547
Ge 10.76816548 6.46386378 6.89359954
Ge 10.25565589 6.31684280 18.08333088
Ge 8.47984678 10.26593839 7.07775079
Ge 8.39710510 10.25168272 17.80959086
Ge 6.14053797 13.96967784 6.93734291
Ge 6.28250214 13.95061280 17.78005849
Te 8.70351707 0.00922464 0.44336884
Te 8.64091825 7.50035129 0.14105613
Te 4.19450350 12.71491443 3.52390222
Te -0.07085449 2.82184715 7.03640700
Te -0.37215141 10.25872005 6.70605470
Te 2.16850180 1.26048273 8.92758487
Te 2.29217125 1.85657487 19.65230328
Te -0.27031531 5.29958451 8.85085421
Te -0.43342806 5.53692409 19.44649187
Te -2.26159290 9.03940599 8.84661119
Te -2.45305448 9.21903568 19.31508968
Te -4.18110514 12.50236419 8.55075401
Te -4.58315369 12.94479568 19.35580470
Te 6.20788140 1.40854712 9.00073001
Te 6.27982222 1.73584823 19.63732161
Te 3.95943546 5.20689549 9.01125379
Te 4.04306623 5.67249269 19.84618406
Te 1.76501840 8.83891149 8.94664422
Te 1.82386139 9.20488046 19.67923861
Te -0.21832125 12.90342257 8.59350046
Te -0.52896982 12.90241930 19.27328300
Te 10.73689175 1.58904405 9.08905396
Te 10.42424318 1.78782778 19.85440795
Te 8.32559594 5.27230535 9.00644271
Te 8.03099485 5.37734655 19.61024690
Te 6.05974529 8.92040645 8.76491972
Te 5.83151808 9.22820081 19.68862601
Te 3.87520868 12.56835400 8.90204017
Te 3.77994906 13.13580260 19.44746617
Te 14.87237038 1.59859280 9.16188274
Te 14.67544036 1.62591167 19.81037770
Te 12.44952398 5.04625057 9.09289209
Te 12.60394495 5.55313195 19.76763412
Te 10.59721125 8.67698547 8.94976942
Te 10.59072323 9.15380036 19.66922841
Te 8.52282301 12.34898027 8.83107620
Te 8.23295007 12.64377313 19.08734825
Te 0.06326272 2.43686468 1.92702199
Te -0.15366694 2.74310897 12.45520221
Te -2.20100106 6.40434316 2.22172965
Te -2.65511501 6.40950478 12.43716391
Te -4.36961070 10.23320835 1.61293839
Te -4.43627621 10.15717731 12.25723948
Te -6.59062602 13.73785174 1.48641605
Te -6.62242024 13.74035352 12.18286227
Te 4.23555454 2.38627365 1.95615023
Te 4.33798031 2.58766472 12.57699802
Te 1.95603149 6.22002460 1.92188794
Te 2.00876332 6.51319039 12.53161767
Te 0.06166137 10.32977094 1.80477133
Te -0.17411602 10.19679258 12.26967897
Te -2.28887202 13.67208216 1.90327762
Te -2.29004000 14.02315142 12.17607388
Te 8.50852623 2.62000002 1.95452257
Te 8.51038081 2.67548963 12.72670586
Te 6.37403435 6.32932634 2.13521207
Te 6.13999781 6.44154162 12.66466163
Te 4.08227380 10.17795651 1.81674805
Te 4.20261393 10.19718217 12.53502792
Te 1.97222111 13.77415744 1.82531786
Te 1.75774151 13.77263446 12.28964410
Te 12.88729042 2.55737754 2.07279358
Te 12.61897613 2.67556577 12.41333970
Te 10.73276673 6.35512866 1.83863246
Te 10.48848523 6.55010012 12.38045783
Te 8.24198417 9.86719564 1.99269620
Te 8.47077309 10.24883642 12.43423169
Te 6.44237277 13.69153169 1.67986561
Te 5.98526081 13.69400829 12.21384392
Te 8.27702671 14.88948491 5.11959600
Te -0.30022969 0.55611060 15.91658319
Te 14.87630976 3.72709450 5.55843238
Te 14.63538175 4.12495281 16.10022722
Te 12.55621133 7.75932380 5.28076654
Te 12.38402455 7.62005756 16.03907143
Te 10.53045200 11.25385748 5.49761282
Te -6.50457820 11.60236479 15.67614086
Te 4.03978818 0.38748070 5.44808651
Te 4.25042258 0.65995832 16.01170086
Te 2.26944379 3.90677072 5.23354844
Te 2.10851930 4.31709474 15.93192121
Te -0.27985557 7.44919180 5.22931468
Te -0.31720320 7.56767538 15.48039278
Te -2.35958505 11.78753949 5.14815864
Te -2.22684540 11.50904683 15.58075681
Te -0.04665281 14.97672035 5.30317985
Te 8.44643558 0.44407097 16.33890735
Te 6.22318173 3.91324301 5.25008946
Te 6.36112379 4.19863610 15.89466659
Te 3.99100196 7.45698290 5.42502089
Te 3.82406275 7.67601824 16.00221762
Te 1.79050987 11.44166180 5.20363760
Te 1.94643840 11.47794348 15.86401291
Te 12.89042728 0.35799285 5.55948523
Te 4.08866037 15.05800544 16.17707764
Te 10.73596727 3.89468941 5.73282099
Te 10.39217854 3.95908625 16.17374303
Te 8.51199187 7.57809878 5.55885673
Te 8.35973718 7.80612458 15.94506808
Te 6.24742097 11.29422114 5.46776223
Te 6.05592326 11.60383512 16.14496180
192
Time=70000.00000007 pbc="T T T" Lattice="17.17293716 0.02708724 0.19708420 -8.59454286 14.72883748 -0.65020324 -0.21664258 0.69527560 21.40318795" energy=-817.10892886 virial="-7.01171320 0.06673165 -1.24722908 0.06673165 6.91979254 3.49097892 -1.24722908 3.49097892 -20.34975819" stress="0.00035429 0.00001230 -0.00022982 0.00001230 0.00292136 0.00064326 -0.00022982 0.00064326 -0.00210342" Properties=species:S:1:pos:R:3
Ge 0.08356720 0.44209071 10.52553391
Ge 8.28329286 14.72792776 -0.34203719
Ge -2.41235025 4.33365830 10.51482210
Ge 14.43737255 4.30013394 21.39616729
Ge -4.35092651 7.97354476 10.80121483
Ge -4.44239156 8.08105074 20.96884762
Ge -6.61943324 11.69309464 10.10957742
Ge 10.63909177 11.21850494 -0.06056197
Ge 4.28585891 0.40671279 10.68692971
Ge -4.15255735 14.54034449 -0.57069417
Ge 1.82526800 4.12578343 10.44363184
Ge 2.36228901 3.69483961 -0.04424747
Ge -0.30657289 7.56746765 10.43782752
Ge -0.14173629 7.46751045 -0.09543447
Ge -1.85042573 11.38721400 10.20698992
Ge -2.10724415 11.27909935 -0.24659609
Ge -0.00039727 14.77821170 10.18529570
Ge 6.63073710 3.93744173 10.92173567
Ge 6.07933310 3.81718738 0.24259311
Ge 4.19498413 7.76150178 10.54759745
Ge 4.28718473 7.41667978 0.16971048
Ge 2.26932998 11.48534679 10.28690029
Ge 2.07373210 11.15998242 -0.18315772
Ge 12.87843213 0.58469431 10.53208828
Ge 12.49072252 0.06352550 0.59458841
Ge 10.89339268 4.24854621 10.59476891
Ge 10.86950437 3.64538773 0.38842245
Ge 8.64519743 7.75912075 10.42696457
Ge 6.38449585 11.35183173 10.27851091
Ge 6.43427722 11.08819794 0.10670504
Ge 1.96949370 1.56703990 3.76249479
Ge 1.96336607 1.56989609 14.24204484
Ge -0.32684617 4.97700829 3.24490685
Ge -0.15789038 5.48411866 13.94255751
Ge -2.18650342 8.92524661 3.24423376
Ge -1.98746815 9.26615359 13.98131277
Ge -4.19638863 12.60225322 3.12147331
Ge -4.47873570 12.56003747 13.95827426
Ge 6.63080496 1.57352754 3.88978814
Ge 6.36950066 1.85255024 14.19001911
Ge 4.28421744 5.02685544 3.54503616
Ge 4.52311773 5.03529336 13.94248742
Ge 2.27101504 8.86982776 3.35853626
Ge 2.33305598 8.90651959 14.11198146
Ge -0.15757167 12.16529655 3.37139821
Ge -0.10828181 12.98718692 13.95904155
Ge 10.49252910 1.43362494 3.98844537
Ge 10.68590714 1.70438021 14.45406047
Ge 8.70224731 4.98298133 3.52936074
Ge 8.18380744 5.53683222 14.48896343
Ge 6.44364525 8.58186171 3.65481457
Ge 6.49948448 9.20482259 13.93745256
Ge 4.21862386 12.61436502 13.80059655
Ge 15.19453425 1.42808807 3.98184470
Ge 14.49611876 1.68132745 14.24972512
Ge 12.93607862 5.02306159 3.37612465
Ge 12.65909077 5.34786897 14.19577955
Ge 10.62042944 8.97660813 3.11016622
Ge 10.63075061 8.97107635 14.38655247
Ge 8.41184207 12.76817843 3.28099723
Ge 8.32282873 12.99838720 14.38837744
Ge -0.48406165 3.09952454 17.57096818
Ge -2.22088316 6.57042979 6.66277648
Ge -1.75202752 6.79816437 17.65285218
Ge -4.58339773 10.01491283 6.77030082
Ge -4.61644073 10.26108720 17.60830573
Ge -6.29702553 13.70149105 6.92711074
Ge -6.13102374 13.84710091 17.28708649
Ge 4.25889623 2.88761519 7.28228625
Ge 3.79369567 3.10099241 18.21662500
Ge 2.14372127 6.50833305 6.84990264
Ge 1.92101781 6.79311053 17.54815542
Ge 0.15604210 10.51603197 17.73516895
Ge -2.39375697 13.92258020 6.88176871
Ge -2.46495429 14.25463892 17.21670782
Ge 8.33278772 2.32681470 7.00882270
Ge 7.94460032 3.12888654 18.09924603
Ge 6.15194852 6.45317562 7.04628714
Ge 6.45390898 6.68566345 18.05980214
Ge 4.17484655 10.21135907 6.84290149
Ge 4.09436866 10.40656126 17.82471867
Ge 2.28261706 13.95073575 6.69484659
Ge 2.26935874 14.24101058 17.78780015
Ge 12.83052631 2.67027098 6.94476312
Ge 12.51570841 2.98217956 17.92637816
Ge 10.57923939 6.78214957 7.11543600
Ge 10.50478084 6.61631292 18.30672017
Ge 8.58633511 10.13673233 6.78894972
Ge 7.93330451 10.32425724 17.89270471
Ge 6.26555083 13.83839075 6.69923228
Ge 6.33931429 13.98836223 17.85999542
Te -0.06246351 14.69157012 -0.26148339
Te 8.70651735 7.44787184 -0.00228432
Te 3.99963483 12.29750259 3.36685091
Te -0.13466208 3.06261479 7.04502339
Te -0.00219589 9.95206026 6.83049852
Te 2.15964558 1.63828142 9.03820048
Te 2.09415949 1.78158944 19.88573593
Te -0.41802917 5.39746718 8.83819704
Te -0.06759045 5.68000118 19.75099863
Te -2.37718204 8.77073137 8.86905002
Te -2.04222882 9.28448822 19.24963716
Te -4.26975561 12.39090383 8.62324954
Te -4.17176260 12.99876622 19.02288774
Te 6.23898869 1.52966860 9.16709352
Te 6.07955065 1.77480757 19.74631190
Te 4.19546050 5.08527850 9.20997102
Te 4.06961684 5.66180318 19.77094021
Te 2.17560572 8.77612788 8.94131994
Te 1.81081617 9.06817090 19.47350019
Te -0.06640911 12.52083269 8.67745993
Te 0.04049959 13.08006672 19.26905406
Te 10.37689449 1.60772560 9.21735654
Te 10.54382754 1.99251105 19.92358774
Te 8.28772564 5.04904569 9.09794480
Te 8.31419473 5.37158359 19.78151320
Te 6.45965838 8.89450910 8.74903465
Te 5.93075403 9.46219506 19.67946819
Te 4.05965533 12.51519040 8.45745975
Te 4.08022942 12.96055944 19.65969105
Te 14.87662944 1.43972638 9.09293925
Te 14.56249609 1.93143082 20.15329470
Te 12.89510467 5.24626127 9.05925228
Te 12.70675183 5.52354488 19.68832469
Te 10.48522122 8.89821614 8.76374370
Te 10.67929539 9.33717172 19.57724692
Te 8.34571859 12.37354445 8.72172947
Te 8.55764389 13.02068051 19.51296199
Te 0.20543421 2.49072942 1.92457276
Te -0.10984255 2.78611770 12.49659857
Te -2.28559596 6.18369369 1.62038525
Te -2.52718566 6.46917425 12.46115453
Te -4.17254127 9.82646864 1.47954850
Te -4.60746108 10.38726192 12.34101932
Te -6.44368991 13.48385150 1.67995309
Te -6.66650738 13.85578912 11.95227526
Te 4.50838418 2.48072651 2.18536657
Te 3.98215643 2.91917720 12.28886185
Te 2.19443971 6.14468447 1.92720316
Te 1.97771746 6.68989009 12.27426270
Te 0.16179370 9.90064934 1.53527591
Te -0.08798511 10.39221103 12.42907136
Te -1.95541926 13.50679712 1.54660496
Te -2.24531366 13.74638943 12.21293596
Te 8.51767969 2.76364696 2.10382356
Te 8.57530106 2.99914358 12.75691713
Te 6.52568567 6.03541410 1.86430547
Te 6.43062136 6.59312117 12.42941403
Te 4.38170379 9.79181110 1.85927295
Te 4.13830347 10.37348271 12.34955517
Te 1.91560634 13.69365270 1.63014164
Te 2.13125616 13.83202890 12.17670638
Te 12.65402206 2.28982031 2.16860166
Te 12.64792781 2.63087623 12.52836513
Te 10.84664169 6.16485435 1.73388741
Te 10.51451591 6.57724272 12.81680538
Te 8.71029630 9.83803961 1.38701953
Te 8.59455432 10.19818539 12.34180659
Te 6.47436661 13.64365076 1.67074730
Te 6.37043694 13.71583723 12.16698851
Te -8.56074796 14.77191165 4.97300696
Te -8.66790746 15.23614082 15.96332922
Te 14.81203270 3.98367873 5.45394482
Te 14.76281837 3.95721665 16.22557953
Te 12.68505082 7.69664365 5.35605926
Te 12.63856957 7.78821118 16.18545916
Te -6.41452785 11.18523767 5.17176806
Te 10.51455311 11.66069495 16.03887914
Te -4.16842809 14.90380112 5.14224843
Te -4.52662205 15.20434380 15.37868275
Te 1.99298013 3.88229375 5.18767977
Te 1.94164958 4.16524127 16.24367227
Te -0.04128223 7.22825464 5.17953045
Te -0.00182654 7.72681482 15.70539371
Te -2.29471237 11.10803248 4.81102300
Te -2.15258458 11.40566481 15.77368956
Te -0.16669733 14.80769685 4.89246020
Te -0.30784021 15.25446443 15.60932588
Te 6.48590285 3.95593078 5.48315108
Te 6.19682351 4.26370661 16.01987583
Te 4.16817887 7.52623942 5.50330482
Te 3.98174777 8.02657225 16.03215828
Te 2.17689590 11.22494975 5.27995304
Te 1.97175454 11.74832679 15.87908526
Te 4.21483314 14.89182053 4.99904489
Te 12.50665796 0.59811710 16.25684690
Te 10.48100188 3.76873473 5.57647072
Te 10.47675690 4.14083044 16.28290732
Te 8.49155129 7.55679200 5.42104499
Te 8.32218883 8.24396892 16.05520384
Te 6.46662186 11.07216554 5.18616059
Te 6.33303159 11.87370017 15.99575298
192
Time=80000.00000008 pbc="T T T" Lattice="17.21973764 0.19676313 0.04075339 -8.79574014 14.69855720 -0.53445630 -0.03886444 0.56187625 21.17695558" energy=-817.97841477 virial="-22.09540233 4.41842351 -0.22762783 4.41842351 0.97295382 18.18012440 -0.22762783 18.18012440 -14.14535360" stress="-0.00243630 0.00081792 -0.00004214 0.00081792 0.00183402 0.00336542 -0.00004214 0.00336542 -0.00096462" Properties=species:S:1:pos:R:3
Ge -8.78156231 14.96515079 10.10865754
Ge -8.51403862 14.30274091 -0.35751531
Ge -2.01062099 4.11537144 10.69269020
Ge 14.83342109 3.68313593 0.32147221
Ge -4.27313980 7.47322837 10.39482133
Ge -4.39379515 7.54622787 0.06600446
Ge 10.47753810 11.47176601 10.29047267
Ge 10.46020086 10.77777941 -0.10444375
Ge -4.95882069 14.81731080 10.14409475
Ge -4.31849901 14.65124236 -0.32106376
Ge 2.11563395 4.27951734 10.69629706
Ge 2.07869126 3.79213651 0.35998369
Ge -0.12004626 7.72155422 10.59398555
Ge 0.09501551 7.42721994 -0.10529389
Ge -2.02368033 11.40645703 10.43338362
Ge -2.20247414 11.13296532 -0.20035937
Ge 8.68627784 0.44924004 10.67929265
Ge 6.37171667 4.17513848 10.79787621
Ge 6.39356761 3.71037967 0.33013609
Ge 4.30031237 8.03309637 10.55789232
Ge 4.11321445 7.38054233 0.18681992
Ge 1.84790796 11.39996884 10.54341002
Ge 1.84462450 11.24698783 -0.03626069
Ge 13.12446927 0.47432527 10.72589788
Ge 12.67727177 0.39056994 0.15439770
Ge 11.08645521 4.27015042 10.40555139
Ge 10.64037099 4.02162811 0.03663468
Ge 8.73600477 7.66105634 10.47467937
Ge 6.09435735 11.54556853 10.35177543
Ge 6.67096967 11.16948677 -0.07720765
Ge 2.36380216 1.50486594 3.31052735
Ge 2.11778028 1.45239942 14.31795778
Ge -0.08612209 5.18600419 3.60345518
Ge -0.05590535 5.27256410 14.06806877
Ge -2.15840659 8.58068123 3.51970771
Ge -2.63972898 9.15131337 13.76987892
Ge -4.23754314 12.40958760 3.59213532
Ge -4.61212709 12.92185802 14.03614048
Ge 6.68588489 1.61312156 3.77935011
Ge 6.69725294 1.85802428 13.97962916
Ge 4.36076726 5.44981476 3.60172031
Ge 4.09443463 5.20561666 14.12997559
Ge 2.16855819 8.91416670 3.32000928
Ge 1.74734032 9.19892140 14.26981669
Ge -0.33500498 12.02929179 3.49711099
Ge -0.21090529 12.88417730 13.67954194
Ge 10.77223074 1.20525193 4.09081176
Ge 10.73081517 1.81884405 14.23900515
Ge 8.45636681 5.31678473 3.36543614
Ge 8.52708594 5.42087827 13.89958625
Ge 6.22935797 8.81714561 3.74686388
Ge 6.48746716 8.82733494 14.09426042
Ge 4.47844509 13.09842212 13.80708355
Ge 14.86209555 1.44838103 3.72817689
Ge 15.22683996 1.85259179 14.33232136
Ge 12.98009388 5.26286980 3.50629573
Ge 12.81967140 5.62295004 14.30579326
Ge 10.55480951 9.10861679 3.63381847
Ge 10.54729870 8.97227343 14.04614228
Ge 8.49862693 12.61919931 3.22272884
Ge 8.30896517 12.24719574 14.09724417
Ge -0.03638756 2.87252313 17.74770515
Ge -1.73800710 6.18727421 6.95036923
Ge -2.48006467 6.65376601 17.42298415
Ge -4.51991968 9.74775118 7.00943361
Ge -4.51614514 10.17265399 17.60694297
Ge -6.52338151 13.72102293 6.41614257
Ge -6.41655179 14.15282097 17.23980669
Ge 4.62615971 2.87830673 7.31710736
Ge 4.40233535 2.89058367 18.04405570
Ge 2.31128156 6.32826481 6.88779472
Ge 2.08065275 6.70412308 17.55445469
Ge -0.10936901 10.44171029 17.49272834
Ge -2.26023302 13.97343137 6.95106430
Ge -2.09714068 13.95241017 17.41769028
Ge 8.67745005 2.72816262 7.13600386
Ge 8.55010703 2.97824249 17.79570982
Ge 5.97808070 6.78796288 6.97776758
Ge 6.10189930 6.45173950 17.52093740
Ge 4.07312782 10.68789572 7.24297006
Ge 4.32530572 10.24277930 17.68653500
Ge 1.70525908 14.14896513 6.82944161
Ge 2.40010508 13.80415773 17.43450124
Ge 13.05894902 2.63947409 7.21781774
Ge 12.85261290 3.23813115 18.07389412
Ge 10.72848338 6.24864847 7.08064703
Ge 10.52337221 6.54380693 17.77296481
Ge 8.50526336 10.29058600 6.90786577
Ge 8.29238377 9.89333666 17.49931425
Ge 6.52780468 13.64655897 6.57079229
Ge 6.37598266 14.04524251 17.90768294
Te 8.62459756 0.22573628 0.35390556
Te 8.51917563 7.35419498 -0.16230517
Te 4.11085061 12.44006531 3.23179405
Te 0.17634931 2.65612887 6.80639519
Te -0.06841614 10.08135024 6.80618525
Te 2.08182872 1.40482926 8.92529283
Te 2.07000558 1.79420589 19.32347099
Te -0.09718770 5.26278291 8.77733879
Te -0.07340248 5.41088975 19.03159289
Te -2.25576690 8.73563491 8.83034995
Te -2.27594237 9.17248411 18.94915632
Te -4.52913804 12.18866567 8.75479720
Te -4.49371082 12.90434898 19.18408872
Te 6.24060584 1.41577428 9.21889753
Te 6.35629806 1.62512970 19.53366474
Te 4.12230769 5.39955161 8.74662363
Te 4.25479044 5.63745722 19.34504165
Te 2.03421176 9.11751525 8.73853731
Te 1.88556548 9.09808531 19.19914672
Te -0.18793686 12.75833274 8.71237002
Te -0.08370499 12.65154276 19.00638003
Te 10.77684075 1.65685050 9.03378546
Te 10.81002644 1.89233626 19.57013281
Te 8.23493949 5.28313161 8.52530335
Te 8.26904477 5.38797472 19.22923617
Te 6.27920738 9.12838210 8.85961890
Te 6.20123037 8.94382745 19.20411147
Te 4.21362974 12.93129323 8.67679672
Te 4.08228866 12.76152395 19.27436016
Te 15.02335592 1.73457085 9.28405886
Te 14.98862815 2.00269356 19.33348730
Te 12.83578204 5.25510670 8.66765490
Te 12.75780460 5.57230732 19.57154404
Te 10.42062077 8.80462853 8.51039404
Te 10.58506974 9.09294929 19.35229043
Te 8.27310484 12.75588819 8.64007446
Te 8.38460954 12.71985251 19.30247652
Te -0.13970096 2.70637433 1.82808118
Te 0.07056846 2.73009611 12.37775831
Te -2.30280702 6.13433199 1.47491196
Te -2.33193665 6.46123885 12.33218976
Te -4.56814976 9.71822576 1.54816466
Te -4.68317567 10.09158696 12.16534171
Te -6.68774331 13.52246651 1.53304850
Te -6.63670554 13.74932177 12.01990351
Te 4.29342412 2.55693852 1.71466483
Te 4.56725433 2.82964107 12.28697439
Te 1.99833069 6.21863873 1.79433485
Te 1.94466054 6.53752526 12.22120687
Te -0.23081342 9.73682227 1.60734953
Te -0.15098449 10.07248049 12.17677839
Te -2.45497309 13.47190400 1.57399521
Te -2.57671380 14.01702108 11.93612545
Te 8.67330221 2.84631128 1.90195804
Te 8.71709273 3.14303603 11.95330997
Te 6.40145689 6.36700214 1.55463979
Te 6.36971559 6.63665633 12.39523804
Te 4.17243278 10.00861887 1.26640709
Te 4.00214330 10.39385858 12.06978280
Te 1.80421878 13.63509826 1.53458821
Te 2.00263093 14.13996927 12.07731561
Te 12.60777160 2.65661795 1.79101388
Te 12.72950637 2.92735138 12.14872462
Te 10.85324083 6.32936576 1.85442793
Te 10.66891168 6.78433383 12.18844284
Te 8.33456346 10.00467082 1.76768400
Te 8.45182297 10.17919633 12.27358574
Te 6.32644996 13.78993451 1.32423447
Te 6.38646966 13.81278923 12.10010696
Te 0.16301997 0.20866394 5.20541964
Te 8.54116290 14.95897189 15.40153156
Te 14.87302313 4.03244124 5.42931872
Te -2.11311073 4.14560635 15.66061392
Te 12.60091613 7.65887672 5.10287578
Te 12.69759287 7.94973023 15.88571129
Te -6.62937037 11.22678539 5.14467005
Te 10.30606411 11.49893877 15.69441456
Te 4.28766036 0.22335967 5.40359183
Te 4.39303509 0.72240494 16.13256478
Te 2.48595450 3.82888156 5.06300727
Te 1.96064422 4.19642710 15.66391805
Te 0.01443974 7.54158377 5.14675644
Te -0.17650199 7.82765561 15.61712744
Te -2.42956284 10.96163095 5.19215600
Te -2.36060737 11.61363222 15.47116442
Te -0.39203103 14.93591183 5.14270605
Te -0.08105973 15.20597081 15.43249577
Te 6.51315681 4.27219088 5.43590437
Te 6.37548009 4.04408955 15.73782263
Te 4.06906040 7.75101077 5.12657639
Te 4.31355706 7.77968552 15.66271857
Te 1.83131283 11.39816811 5.25242253
Te 2.13244707 11.39911244 15.64521335
Te 4.06895833 14.93982041 5.03873136
Te 12.98749819 0.66092697 16.12600176
Te 10.65296454 3.88141240 5.47122573
Te 10.80716288 4.23643658 15.72704025
Te 8.64657310 7.77642181 5.34660738
Te 8.62656339 7.68980907 15.78210466
Te 6.30452855 11.37993007 5.14625636
Te 6.21852082 11.37768595 15.74060306
192
Time=90000.00000003 pbc="T T T" Lattice="17.17026556 0.17666364 -0.17128335 -8.76339649 14.84312039 -0.35435800 0.49539573 0.54913720 21.36711003" energy=-815.78978068 virial="-11.24649638 5.63686496 -12.76490263 5.63686496 -14.69823159 -2.31402514 -12.76490263 -2.31402514 -18.48708974" stress="-0.00042168 0.00102809 -0.00232814 0.00102809 -0.00105123 -0.00042205 -0.00232814 -0.00042205 -0.00174227" Properties=species:S:1:pos:R:3
Ge 0.25184168 0.42611829 10.37736664
Ge 16.98361484 0.32460100 0.12227195
Ge -2.07841432 4.40672261 10.47631188
Ge -2.24796684 4.03983599 0.15902736
Ge -3.94932000 7.51003153 10.19578984
Ge -3.99714047 7.60520123 0.27609253
Ge 10.79224368 11.16228043 10.37892216
Ge -6.43061706 11.28982276 0.33372992
Ge 4.04166321 0.43587308 10.74295999
Ge 4.35453801 0.10881007 -0.01339734
Ge 2.32696333 4.46741563 10.52224391
Ge 2.05972556 3.62646437 0.00193824
Ge 0.30687191 8.03275375 10.40065554
Ge 0.15297326 7.46996550 0.12389454
Ge -2.27933150 11.50786415 10.57370744
Ge -2.32067627 11.35288111 -0.28729227
Ge 8.90652003 0.40047772 10.72584712
Ge 6.40210399 4.14500797 10.63709951
Ge 6.30928435 3.87579878 -0.12632052
Ge 4.58112655 7.92051865 10.59157585
Ge 4.66662346 7.64027443 -0.01071006
Ge 2.34565671 11.44068799 10.16946224
Ge 2.56258436 12.23467618 20.76587441
Ge 13.40718098 0.61213700 10.42000256
Ge 13.12549228 0.47819225 0.02482581
Ge 10.91173599 4.10465906 10.39940742
Ge 10.55281783 4.15837674 -0.15338902
Ge 8.55102819 7.99981102 10.58005394
Ge 6.27224531 11.76646823 10.42610439
Ge 6.48898736 11.39842643 0.00914262
Ge 2.38535562 1.72364724 4.00576204
Ge 2.59986747 1.27989526 14.07059390
Ge 0.03888773 5.31530584 3.61711973
Ge 0.44006556 5.12224832 14.29913091
Ge -1.85380540 8.87443035 3.43258856
Ge -1.98867247 9.21688624 14.26889589
Ge -4.41948398 12.84429222 3.31781098
Ge -4.47334832 12.64320539 13.83744885
Ge 6.46472676 1.29631746 3.92875261
Ge 6.81911310 1.72278926 14.28263274
Ge 4.26789213 5.24324859 3.41600313
Ge 4.21263038 5.62802896 14.53717745
Ge 2.41211584 9.25361680 3.37853416
Ge 2.13237682 9.03423816 13.82888992
Ge -0.16452186 12.73340381 3.70985103
Ge 0.17152168 12.85641532 13.74144286
Ge 10.85147585 1.48083273 3.40570491
Ge 11.18503660 1.76420231 13.78562657
Ge 8.53350258 4.75419649 3.47346013
Ge 8.76521735 5.57201250 14.32381324
Ge 6.43804449 8.94772197 3.45456951
Ge 6.39738068 8.97947021 14.23497613
Ge 4.16910332 12.82471454 14.35172683
Ge 14.96380622 1.59392796 3.46595697
Ge 15.32441116 1.79662401 13.90845642
Ge 12.83030667 5.19208627 3.57463677
Ge 13.12331714 5.57307639 13.57165482
Ge 10.46032359 8.73341840 3.29589847
Ge 10.63213870 9.18141677 13.73721960
Ge 8.22972830 12.60092025 3.42068285
Ge 8.35813645 12.67003894 14.09811877
Ge 0.53194823 3.13635421 17.65617835
Ge -2.21287944 6.51140367 6.95921881
Ge -1.73249986 6.71295588 17.44999187
Ge -4.10485176 10.27902640 6.65543698
Ge -4.11450700 10.34074680 17.72251746
Ge -6.77791588 13.88329499 7.05665847
Ge -6.19074179 13.97278970 17.28375257
Ge 4.49220798 2.76014127 7.23034882
Ge 4.71388230 3.04713302 18.19591458
Ge 2.44777211 6.56608365 7.03079279
Ge 2.22980943 6.61821318 17.81258452
Ge 0.10638352 10.53263528 17.58859217
Ge -2.08467455 13.74404102 7.07202326
Ge -1.85607329 14.28680831 17.34206934
Ge 8.65008143 2.60685717 7.45948912
Ge 9.22108767 2.90529897 18.02778446
Ge 6.41612851 6.83139539 7.13871519
Ge 7.18777216 6.45809826 17.65295713
Ge 4.08269418 10.61295557 6.85712146
Ge 4.70533222 10.57989250 17.93480029
Ge 2.25205425 14.20099244 6.49504293
Ge 2.44594258 14.22779453 17.31317997
Ge 12.92362366 2.90154699 6.66305002
Ge 13.34454079 3.56152873 17.62883863
Ge 10.83475226 6.71551397 6.86903126
Ge 11.30898431 6.88319077 17.63305451
Ge 8.81061892 10.18126246 6.68044644
Ge 9.07301189 10.53414147 17.84825280
Ge 6.43490547 14.28416242 6.59381882
Ge 7.06697385 14.17809485 17.55149020
Te 9.17682714 0.67374968 21.24104794
Te 8.52313850 7.90898837 0.14089365
Te 4.14701732 12.63134520 3.26737206
Te 0.31629419 2.62015720 7.11555788
Te 0.20224312 10.25596304 6.95871428
Te 2.29529466 1.47350057 8.92469618
Te 2.67790014 1.50687735 19.71601017
Te 0.22649961 5.32011370 8.73458703
Te 0.30192795 5.30435456 19.77596342
Te -1.95778093 8.94375017 8.80387469
Te -1.91305089 9.18844591 19.47593247
Te -4.24863213 12.45874804 8.82060558
Te -4.01491657 12.92111558 19.56720180
Te 6.32597739 1.37838644 8.79074032
Te 6.91745543 1.97519509 19.72678553
Te 4.44720862 5.34082192 8.84879548
Te 4.88313118 5.62312265 19.63709908
Te 2.57406036 9.03138352 8.77715776
Te 2.41390416 8.87271891 19.48299257
Te 0.05624211 12.59615830 8.77839879
Te 0.17474650 12.81587423 19.09446752
Te 11.14898398 1.49062021 9.17112201
Te 11.21897014 1.52924729 19.30418629
Te 8.69626561 5.09704821 8.78757601
Te 8.94297675 5.38400182 19.58925646
Te 6.61662420 8.94278012 8.87796646
Te 6.81872058 9.30427677 19.59889917
Te 4.37156514 12.84524843 8.55885361
Te 4.79799701 12.94427990 19.44604455
Te 15.32606935 1.71125980 8.86981807
Te 15.53021961 1.68783929 19.58692987
Te 13.00412210 5.28958872 8.60564731
Te 13.03482784 5.75159823 19.42631347
Te 10.94457572 8.63589807 8.99891054
Te 11.06453658 9.19981230 19.32243663
Te 8.63789080 12.51233039 8.84918242
Te 9.08365627 13.08763953 19.11438812
Te -0.14637956 2.54236666 1.81619206
Te 0.29606897 2.60677651 12.31422936
Te -2.38532903 6.28375551 2.03048180
Te -1.69201328 6.36707289 12.43318161
Te -4.70011289 10.01615601 1.89446305
Te -4.23301254 10.15695872 12.46031922
Te -6.67753300 13.74498218 1.86278462
Te -6.39213726 13.64555890 12.40326285
Te 4.33356993 2.75831135 2.10324446
Te 4.75825672 2.81565960 12.59194846
Te 2.12860745 5.92616575 1.70172021
Te 2.34733517 6.58257149 12.42359780
Te -0.06602519 10.13726149 1.84948505
Te 0.16365551 10.23037032 12.21786706
Te -2.43495273 13.68670034 1.59229314
Te -2.04172916 13.99327645 12.23120411
Te 8.56708706 2.65257893 1.70943361
Te 8.98367389 2.95365627 12.55380276
Te 6.39090823 6.40080206 1.90175991
Te 6.62698078 6.33831392 12.07761283
Te 4.51592580 9.91085706 1.50426459
Te 4.42989977 10.18290793 12.27309126
Te 2.08111844 13.79362191 1.21570377
Te 2.16451926 13.93139961 12.40618609
Te 12.89823364 2.97811385 1.75209865
Te 13.34452868 2.84700467 12.09036729
Te 10.84232009 6.55361510 1.69230845
Te 10.97772736 6.54868389 12.06147392
Te 8.37248695 10.17374327 1.96246234
Te 8.73877222 10.30922068 12.18133417
Te 6.32216494 13.83275961 1.57490791
Te 6.53357516 13.89663130 12.42736143
Te 8.47917216 15.02813870 4.90679508
Te -8.23529375 15.09246056 15.49045491
Te 15.02584564 4.09815296 5.22981872
Te -1.74327484 4.25605064 16.23179054
Te 12.82572439 7.80512686 5.24704995
Te 13.18801216 7.83028748 15.94263907
Te -6.34230053 11.12134594 5.22185035
Te 10.77569781 11.30955373 15.83844752
Te 4.20974541 0.24552937 5.62271869
Te 4.62792575 0.51857694 15.96811973
Te 2.29264591 4.24910792 5.45893266
Te 2.62579670 4.11939950 16.18066645
Te 0.14396884 7.56815902 5.20764098
Te 0.48083485 7.68211204 15.96017781
Te -2.20271702 11.42274046 5.05466820
Te -1.96619608 11.63898936 16.02502493
Te -0.07388835 14.99888260 4.98978790
Te 8.93894037 0.60530530 16.24538651
Te 6.42474767 3.72061023 5.63477171
Te 6.60152807 4.06661114 16.07345342