192
Time=60000.00000005 pbc="T T T" Lattice="16.95096982 0.47159949 -0.03190998 -9.15762533 14.85159623 -0.42620153 0.12506753 0.58739547 21.13678832" energy=-815.50338525 virial="12.81717788 19.19942489 -19.19738760 19.19942489 -26.42126770 -11.30815211 -19.19738760 -11.30815211 -6.63479676" stress="0.00404618 0.00354446 -0.00354409 0.00354446 -0.00319775 -0.00208763 -0.00354409 -0.00208763 0.00045509" Properties=species:S:1:pos:R:3
Ge -0.08974499 0.71908839 10.81276566
Ge 7.83252769 15.06835859 -0.06009731
Ge 14.58674377 4.60272906 10.48319836
Ge 14.56238453 4.08991011 0.17228514
Ge -4.36602705 7.84804569 10.60364208
Ge 12.24054192 8.01659238 -0.07685289
Ge 10.06980006 11.86924109 10.37490188
Ge 10.16455819 12.21259760 20.59028501
Ge 4.32357997 0.67681388 11.02337501
Ge -4.77326347 14.86037667 0.12123863
Ge 2.24321353 4.22745832 10.28840922
Ge 1.52628150 4.16872345 20.78312023
Ge -0.03647798 7.87617161 10.44189302
Ge -0.35010564 7.52674441 -0.11756615
Ge -2.42704492 11.70676799 10.67426716
Ge -2.60594215 11.45957707 -0.10858601
Ge -0.56319160 14.94558154 10.35408726
Ge 6.77116185 3.87901551 10.50678592
Ge 5.68080437 4.02112091 0.03037767
Ge 3.94023105 7.97086972 10.39006298
Ge 3.95391034 7.60471456 0.00370135
Ge 1.86324741 11.42641878 10.24384351
Ge 1.63102332 11.27275271 -0.06263896
Ge 4.06023990 15.32563068 10.06021560
Ge 3.42312806 15.10504130 -0.03433491
Ge 10.48952196 4.43166289 10.52730774
Ge 10.46337620 3.73616574 0.17011764
Ge 7.99689771 8.09798004 10.22763851
Ge 5.71479228 11.79704262 9.79727368
Ge 5.86924486 12.22480712 20.55703945
Ge 2.14680102 1.28893590 3.58608223
Ge 2.19312565 1.76058376 14.06467739
Ge -0.09523288 5.20366789 3.46998334
Ge -0.56772906 5.11317411 14.26008248
Ge -2.76034282 8.72226938 3.10942606
Ge -2.41133755 9.49492528 14.11197587
Ge -4.60283782 12.39771062 3.31446214
Ge -4.46760680 12.84319783 13.92281091
Ge 6.31483519 1.80789761 3.61575554
Ge 6.71454463 1.84385253 13.96855132
Ge 4.23865900 5.45370404 3.65887392
Ge 4.26111003 5.46616573 14.28146756
Ge 1.53055894 8.96576371 3.10571572
Ge 1.40109450 9.25506974 14.11805243
Ge -0.48209926 12.64045776 3.58108977
Ge -0.36893628 13.40398023 14.06530657
Ge 10.35951476 1.77077078 3.80269221
Ge 10.96344106 1.86561179 13.68030898
Ge 8.40599455 5.20501059 3.60735252
Ge 8.39917167 5.58850379 13.90406628
Ge 6.27677715 9.29957504 3.20641830
Ge 5.94100619 9.28783528 13.79203474
Ge 3.70388882 12.89811373 14.15157561
Ge 14.48002994 1.38203221 3.83536336
Ge 15.00883265 2.21491191 13.93336406
Ge 12.63920955 5.36411790 3.49925584
Ge 12.35854026 5.96999673 14.22937890
Ge 9.88562224 9.36096403 3.33372034
Ge 9.90798013 9.64870298 14.12786729
Ge 8.06967798 12.61512056 3.32539266
Ge 7.73416184 13.16500616 13.93909901
Ge 0.13525234 2.70297501 17.72130933
Ge -2.14803359 6.26171372 6.79782280
Ge -2.72814324 6.58989703 17.62621695
Ge -4.46146518 10.26190314 7.23970264
Ge -5.03515904 10.53053120 17.75268241
Ge -6.63863538 13.87448316 6.75447130
Ge -6.58159541 14.29971387 17.10909680
Ge 4.04823760 2.71211635 7.41114479
Ge 4.44728257 3.10837634 17.72355912
Ge 2.04850834 6.24562000 6.65646024
Ge 1.88197199 6.67909386 17.55136397
Ge -0.51202057 10.51413873 17.77163358
Ge -2.87022658 13.97934661 6.77936833
Ge -2.69204598 14.68644731 17.64094119
Ge 8.53182845 3.14750128 7.19733956
Ge 8.61449263 3.14745927 18.01609572
Ge 5.90766450 6.87864779 6.70958127
Ge 6.16854310 7.17489527 17.77788984
Ge 3.79174898 10.44186554 6.54342086
Ge 3.71679688 10.75914646 17.54743201
Ge 1.43092174 13.89831992 6.43987630
Ge 1.90261895 14.72671364 17.36030478
Ge 12.62537879 3.22316559 7.32272809
Ge 12.63077337 3.33557443 17.78658269
Ge 10.25737834 7.25296621 6.80115046
Ge 10.42603555 6.78858493 17.62374016
Ge 8.08976039 10.58791208 6.76046591
Ge 8.03261002 10.63896904 17.51508028
Ge 6.03699690 14.24525789 6.49501112
Ge 6.05735346 14.74859888 17.21709642
Te -0.60926895 15.02932713 -0.09022094
Te 8.26350252 7.46261461 -0.15647107
Te 3.60953154 12.65869438 3.31946855
Te 0.23377538 2.81286875 7.24819944
Te -0.44333137 10.10741313 6.97738546
Te 2.22962145 1.40040194 9.18872535
Te 2.29740686 1.63889314 19.39959434
Te -0.20659410 5.53078117 9.08641011
Te -0.46929182 5.65589614 19.25205942
Te -2.37850376 9.15514529 8.97562989
Te -2.71058193 9.41911069 19.18727164
Te -4.42128937 12.53201724 8.73414708
Te -4.49390901 13.04652688 19.32402849
Te 6.40864936 1.51306464 8.91874190
Te 6.45909991 2.00958775 19.50624549
Te 4.04094036 5.19061899 8.73511252
Te 3.98126280 5.69015932 19.56167031
Te 1.99415158 8.95211292 8.66920752
Te 1.48995089 9.40193271 19.29423829
Te -0.63627092 12.72259950 8.65277207
Te -0.38224910 13.06078461 19.04381664
Te 10.51608413 1.99602820 8.75231356
Te 10.82748482 2.20051939 19.59091982
Te 8.22911627 5.52579345 8.50533458
Te 8.45258977 5.64345855 19.47605756
Te 5.92212233 9.26556664 8.44263372
Te 5.88287511 9.53151805 19.40786990
Te 3.77331961 12.95427602 8.33007472
Te 3.76194466 13.17510510 19.04465066
Te 14.94523185 2.16127779 8.91358467
Te 14.86453257 2.15482889 19.28839189
Te 12.34525110 5.84707729 8.74739921
Te 12.31756966 6.06627101 19.42272213
Te 10.25000294 9.36164864 8.87853708
Te 10.22567990 9.64840259 19.29493265
Te 7.91343010 12.87074176 8.50447557
Te 8.15434869 13.33064128 18.92276094
Te -0.08054635 2.68613909 1.76290068
Te -0.15534500 2.92947737 12.40149469
Te -2.38385954 6.10398816 1.49234706
Te -2.35672200 6.65325772 12.30869881
Te -5.06505924 9.90614595 1.74638402
Te -4.55386085 10.33812058 12.31465144
Te -7.09056067 13.46435850 1.43961737
Te -6.91206492 14.22476598 11.99679153
Te 4.16173195 2.65009932 1.99387003
Te 4.62670237 3.12219352 12.41841901
Te 1.82624792 6.47907971 1.72662285
Te 2.00171964 6.93611474 12.42491814
Te -0.47716100 10.24593688 1.49652761
Te -0.21236183 10.44037136 12.09766651
Te -2.78572199 13.88560724 1.71052013
Te -2.70535664 14.14053417 12.11018553
Te 8.22872001 2.85342307 1.84377618
Te 8.74274086 2.65463408 12.19510549
Te 6.11670166 6.36610893 1.75578398
Te 6.23276531 6.68099852 12.16832208
Te 3.73639146 9.98984271 1.51440667
Te 3.95970506 10.52630431 12.20856833
Te 1.32703928 13.99494513 1.43962361
Te 1.57143431 14.10627458 12.24378469
Te 12.83434448 2.74292022 2.05733460
Te 12.74039353 3.08721320 11.95560762
Te 10.38952345 6.53734143 1.77068265
Te 10.13788266 7.07483663 12.35295060
Te 7.99521560 10.34151332 1.64491820
Te 7.94698073 10.94232279 12.41026929
Te 5.99872114 13.84799348 1.40165075
Te 5.73622713 14.43090411 12.09324878
Te -8.98707020 14.93483399 5.03607517
Te 0.38534818 0.63528604 15.97644169
Te -2.09975314 3.98101096 5.25068179
Te 14.60324734 4.47140384 15.96192091
Te 12.55007779 7.61439816 5.23492526
Te 12.16111672 8.23410436 15.78372180
Te -6.77891558 11.35967022 4.93973102
Te 10.20558464 11.97707450 15.64687070
Te 4.32059399 0.36443709 5.55619404
Te 4.51234177 0.89651231 16.06623529
Te 2.11152739 3.72538609 5.14839689
Te 1.97684983 4.43741983 15.79763114
Te -0.16367490 7.57411914 5.27124298
Te -0.42486153 8.10786250 16.01865306
Te -2.68488885 11.18326283 4.88998072
Te -2.30344233 11.86826202 15.59531902
Te -0.77569446 15.18281333 5.18582637
Te 8.74251367 0.97743225 16.05709628
Te 6.14244836 4.24244408 5.39273987
Te 6.31456213 4.45119477 15.88570103
Te 3.80879354 7.76237993 4.89749731
Te 3.93135011 8.21945233 15.95615637
Te 1.61156531 11.37071854 4.93828305
Te 1.53975902 12.06988566 15.91914918
Te 12.62394572 0.73835062 5.67119023
Te 12.92841531 1.16223986 16.07085561
Te 10.54876659 4.13651334 5.32466111
Te 10.27245107 4.57548705 15.95152559
Te 8.13422998 7.83728317 5.18035150
Te 7.88417992 8.08842284 15.68260761
Te 6.01308345 11.64363279 5.00684520
Te 5.86521119 11.95490552 15.84973892
192
Time=70000.00000007 pbc="T T T" Lattice="17.30090711 0.45466375 -0.32579218 -9.30543217 14.70332483 -0.54803915 0.10198167 1.11171716 20.94114129" energy=-816.74287277 virial="-12.22320330 3.19478557 9.96939213 3.19478557 -8.11025935 -0.17001372 9.96939213 -0.17001372 -0.25717386" stress="-0.00057517 0.00058833 0.00183590 0.00058833 0.00018225 -0.00003131 0.00183590 -0.00003131 0.00162843" Properties=species:S:1:pos:R:3
Ge 17.16624476 1.11120718 10.14816647
Ge -0.01311010 0.09394030 0.18834980
Ge 14.89733912 4.61723768 9.72549628
Ge -2.08803196 3.37025344 -0.00751074
Ge -4.33478306 7.82713243 10.33265498
Ge -4.26291369 8.45899485 20.60534815
Ge -6.80691407 11.67841649 10.19417062
Ge 9.98477835 11.68489757 -0.21414721
Ge -4.71345431 15.22283865 9.72723559
Ge -4.91000462 14.47880958 -0.55316646
Ge 1.91227614 4.54369664 10.15926848
Ge 2.40697174 3.99141070 0.13174738
Ge -0.33100461 8.00483097 10.42024095
Ge -0.24704559 8.20697183 20.59381859
Ge -2.31035134 12.04233579 10.50945700
Ge -2.51691725 12.02950521 20.42830531
Ge -0.61389445 15.36480914 9.62172778
Ge 6.20629692 4.74970471 10.04433317
Ge 6.40325065 3.87904690 0.03941120
Ge 3.72607159 8.21977385 10.25209097
Ge 4.07623413 7.37254192 -0.02540107
Ge 1.52360699 11.83898735 10.20798792
Ge 1.42551127 11.05148896 -0.50549136
Ge 3.90162554 15.30413813 9.85627032
Ge 4.05262264 15.93905582 20.11138410
Ge 10.89220861 4.60721106 10.14967460
Ge 10.66215195 4.17965265 -0.33891516
Ge 8.78995250 8.40196950 9.80763819
Ge 6.05093317 11.86339076 9.96802691
Ge 5.91635769 12.58564451 20.06225142
Ge 2.11466339 1.76520947 3.56906573
Ge 2.22129437 2.09488695 13.53950395
Ge -0.34525773 5.38645922 3.76262408
Ge -0.36997348 5.62656331 13.97793390
Ge -2.41906056 8.61629438 3.37905758
Ge -2.87243635 9.67717503 13.86383602
Ge -4.86043770 12.30741591 2.98399469
Ge -4.68520951 13.27338243 13.34663767
Ge 6.64171402 1.45383687 3.64661886
Ge 6.73726369 2.35217776 14.05234333
Ge 4.16303825 5.28011349 3.37766636
Ge 4.35519467 5.81644036 13.65924071
Ge 1.95901590 9.39493253 3.03234833
Ge 1.82927409 9.32162588 13.81716087
Ge -0.35085548 12.52088796 2.90634591
Ge -0.29597962 13.02452495 13.56229126
Ge 10.86699571 1.62114951 3.28371608
Ge 10.95287206 2.43822683 13.89645323
Ge 8.81093837 5.42316340 3.31807435
Ge 8.43423025 5.74663267 13.47833716
Ge 6.17258137 9.08001148 3.19708392
Ge 6.26479542 9.64245730 13.71869381
Ge 3.79343529 13.54059538 13.80415390
Ge 15.47675789 1.98467519 3.04490437
Ge 15.14098097 2.35726816 13.70834375
Ge 12.57281320 5.29830868 3.02874547
Ge 12.64697198 6.12183213 13.37481044
Ge 10.36784246 9.33402393 3.01639767
Ge 10.62202785 9.96032427 13.32795730
Ge 8.37356685 12.59331451 2.97607194
Ge 8.54011899 13.41449527 13.33470732
Ge 0.06323289 3.15323805 17.14669364
Ge -2.79658020 6.68406110 6.68659879
Ge -2.50446359 6.98900273 17.10707660
Ge -4.75085454 10.23575416 6.40411335
Ge -4.69845632 10.68193200 17.34575708
Ge -6.88604622 13.85634555 6.72141461
Ge -7.05050392 14.43839727 17.12448877
Ge 4.28942281 3.01518440 6.66904110
Ge 4.68998899 3.59075075 17.41358932
Ge 1.91056992 6.87462432 6.84020313
Ge 2.04350828 7.29425846 17.34920233
Ge -0.01217242 10.93273877 17.30135675
Ge -2.78391828 14.17752310 6.28598479
Ge -2.94868366 14.42332967 16.95388571
Ge 8.53741689 3.04458525 6.59907347
Ge 8.73851316 4.05255680 17.54982124
Ge 6.22081095 7.01304365 6.80674309
Ge 6.34135111 7.58479476 17.28778045
Ge 3.86031925 10.25969426 6.40772149
Ge 4.39081204 10.97852531 17.01398137
Ge 1.74914610 14.48036446 6.45931522
Ge 1.33862552 15.08526591 17.05532735
Ge 13.03315959 3.15398251 6.80031687
Ge 12.88471511 3.79927679 17.24475429
Ge 10.54423319 6.70317195 6.68569865
Ge 10.58515796 7.39056794 17.22411088
Ge 8.13971801 10.45170719 6.75108219
Ge 8.46128108 11.00094801 16.61174309
Ge 5.85208214 14.19052717 6.31813154
Ge 6.13051245 14.71088333 17.10042743
Te 8.59037814 0.34224826 -0.00988471
Te 8.30004212 8.99424070 20.37214753
Te 3.91308927 12.75174110 3.02459627
Te -0.23235353 2.82846072 6.84572106
Te -0.08550262 10.24726707 6.55688308
Te 2.33983167 1.53488843 8.82265408
Te 2.09997102 2.17717810 19.31659018
Te -0.41483663 5.58285828 8.52639810
Te -0.44976716 5.83554139 19.00849081
Te -2.37137754 9.01564332 8.48530329
Te -2.40547948 9.67402018 18.67993186
Te -4.86619969 12.74553184 8.38497233
Te -4.80793077 13.31833922 18.79390509
Te 6.74163721 1.78427879 8.64298466
Te 6.41527372 2.50748413 19.10385562
Te 3.81331456 5.58156992 8.43120553
Te 4.38645211 6.27557153 19.06628732
Te 1.70088917 9.41033730 8.51728424
Te 2.05170290 9.79198604 19.07600649
Te -0.53478291 12.99584285 8.43947790
Te -0.45804334 13.18311900 18.62817891
Te 11.03155843 2.11341978 8.85787866
Te 10.85173824 2.70898016 19.09813842
Te 8.70422851 5.76146401 8.52096101
Te 8.31232937 6.23220294 19.10509121
Te 5.98876225 9.18683422 8.49763167
Te 6.20370054 10.02771539 18.93699365
Te 3.59766300 13.10697913 8.16933785
Te 3.87945226 13.79443876 18.50053946
Te 15.10243173 2.06231212 8.72781825
Te 15.07044063 2.63053730 18.92548414
Te 12.65660865 5.91651113 8.50673871
Te 12.71698613 6.37506024 18.87105459
Te 10.54448301 9.41462519 8.03113631
Te 10.47798190 10.14370986 18.57545040
Te 8.02027878 12.97766811 8.41252904
Te 8.15385747 13.65586531 18.75035498
Te -0.01382731 2.65192945 1.86544839
Te 0.08128619 3.25625705 12.07320493
Te -2.53480437 6.29654763 1.50460024
Te -2.42559858 6.84605920 12.16823651
Te -5.06186740 9.84652649 1.60027779
Te -4.80087492 10.86476510 12.03689674
Te -7.16810619 13.64072689 1.36991227
Te -6.97660898 14.18701114 11.66357051
Te 4.17014181 2.85357459 1.84493179
Te 4.23290426 3.17474026 11.87198798
Te 1.94304545 6.35379315 1.40515868
Te 2.11413463 6.70760430 12.15247697
Te -0.32591534 10.14046044 1.34315132
Te -0.25399136 10.70289545 12.03926656
Te -2.95700864 13.58164195 1.24125937
Te -2.73797640 14.55120663 11.89745940
Te 8.48998292 2.93216352 2.00082487
Te 8.70599928 3.32763458 12.08380971
Te 6.35954897 6.46349110 1.79324508
Te 6.20695917 6.93915284 11.93386865
Te 3.99843301 10.19449862 1.33870069
Te 3.64344172 10.51092231 11.97047794
Te 1.41928338 13.87608771 1.25514413
Te 1.50497623 14.39436092 11.73330172
Te 12.76128025 3.08818922 1.50435802
Te 13.12404766 3.54552656 12.07306795
Te 10.60331543 6.66136805 1.26189461
Te 10.54702952 7.16052380 11.76305540
Te 8.17107750 10.32761250 1.53823412
Te 8.23972388 10.95571946 11.82353458
Te 5.92718283 13.87161179 0.96940615
Te 6.25536368 14.17640573 11.80228798
Te 8.01114935 15.31656064 4.62512641
Te 8.15724186 15.76172586 14.92210197
Te -2.42546590 4.16504863 5.01513618
Te 14.75962714 4.86325722 15.33312706
Te 12.52437734 8.23356157 4.72862792
Te 12.49438140 8.92553775 15.10607663
Te 10.24726050 11.43620074 4.71763187
Te 10.36837214 12.07375057 15.08550103
Te -5.14057036 15.09755430 4.98950564
Te -4.83182712 15.57729395 15.42308355
Te 2.04067089 4.13528073 5.27663474
Te 1.70404200 4.67751226 15.62791720
Te -0.48255274 7.58814942 5.06400578
Te -0.30002355 7.99575544 15.53226742
Te -2.56112267 11.41662116 4.88963081
Te -2.14450900 11.97438318 15.43074262
Te -0.54038966 15.12226438 4.81334498
Te 8.76199111 1.33799840 15.73778908
Te 6.49096244 4.19771481 5.12787710
Te 6.41483964 4.82690577 15.49809794
Te 3.91661362 7.85701681 4.88919322
Te 3.89304727 7.96625984 15.44128204
Te 1.63836508 11.75707914 4.68738681
Te 1.91907322 11.76968982 15.26387412
Te 3.96908074 15.34034326 4.73800743
Te 3.70371825 15.87311946 15.12363958
Te 10.82941612 4.21469785 5.12497649
Te 10.73238352 5.04079390 15.39932213
Te 8.19610487 8.06696452 5.08619416
Te 8.17824808 8.48638589 15.19820615
Te 6.18955401 11.51012484 4.98195445
Te 6.12659119 12.45218433 15.36264634
192
Time=80000.00000008 pbc="T T T" Lattice="17.27017574 0.45908043 -0.37007755 -8.93142017 14.66131397 -0.53376065 0.27541276 0.94905273 21.40663848" energy=-814.71153665 virial="-25.55057555 -9.89763623 14.61136631 -9.89763623 -17.61447718 6.80936981 14.61136631 6.80936981 -33.37947312" stress="-0.00297970 -0.00179275 0.00264655 -0.00179275 -0.00154224 0.00123338 0.00264655 0.00123338 -0.00439774" Properties=species:S:1:pos:R:3
Ge 8.67796207 15.15542743 10.07875604
Ge 17.01022689 0.66820422 0.29727390
Ge 15.14170011 4.52834691 10.65315970
Ge 14.61841571 4.28613016 -0.35935228
Ge 12.79043280 8.15081086 10.09997726
Ge 12.50016444 7.86338892 -0.07537028
Ge -6.44189708 11.46983186 10.06600076
Ge -6.37834234 11.23418588 -0.37778130
Ge -4.76837607 15.00576726 10.17703936
Ge -4.25876338 15.70869216 20.73288948
Ge 2.14070341 4.43494824 10.57581312
Ge 1.84612713 3.52218932 0.05642451
Ge 0.08129818 7.86369049 10.43153278
Ge -0.32673840 7.53627415 -0.07732832
Ge -2.42158700 11.30963128 10.44198942
Ge -2.54096255 10.76563355 -0.14705591
Ge 8.82657505 0.80072839 10.91012674
Ge 6.66365237 4.11039786 10.75656538
Ge 6.45802908 5.06561984 21.04042370
Ge 4.27506819 8.24921449 10.66193854
Ge 4.02325544 7.55891325 -0.09412958
Ge 1.77088572 11.65330958 10.40055200
Ge 1.95728637 11.31329584 -0.21039422
Ge 4.14891807 15.43459548 9.86697829
Ge 13.22135066 1.67152106 21.05279888
Ge 11.00602558 4.40900912 10.84136501
Ge 10.36113460 4.07111174 -0.23053342
Ge 8.37598507 8.51489768 10.21484431
Ge 6.13531525 11.96801692 10.06154761
Ge 6.28978664 11.80704417 -0.61247608
Ge 2.16175480 1.12722854 3.64221391
Ge 2.58443940 1.89182459 14.47237216
Ge 0.11421390 5.23100965 3.73126757
Ge -0.00999357 5.46678328 14.02757967
Ge -2.03783005 8.57068849 3.43412459
Ge -1.93033286 8.93235033 14.23824655
Ge -4.47889553 12.12462011 3.42646459
Ge -3.99590229 12.82681857 14.02617210
Ge 6.48392592 1.18159122 3.53059804
Ge 6.60679858 1.72575585 13.85562105
Ge 4.26573279 5.02736447 3.40197905
Ge 4.21342628 5.56615206 14.19357130
Ge 2.07895189 8.67937092 3.38424284
Ge 2.24921750 9.53510748 14.14248010
Ge -0.31986262 12.82158323 2.60236583
Ge -0.05900845 13.42633081 13.79260442
Ge 10.63859669 1.61972648 3.52825628
Ge 10.98743647 2.23774071 14.22220522
Ge 8.67039728 5.09400553 3.40747314
Ge 8.89988287 6.13766243 13.97406058
Ge 6.07761182 8.71461202 2.72187255
Ge 6.72397299 9.79872448 13.51983486
Ge 4.65092481 13.30136030 13.94902678
Ge 14.69015721 1.86763823 3.33329830
Ge 15.56997023 2.28984611 13.88119607
Ge 13.08360112 5.76516678 3.43681228
Ge 13.08717594 5.93761656 13.87663471
Ge 10.28868905 9.36829434 2.91982889
Ge 10.76467044 9.94778981 13.35672256
Ge 8.01383355 12.86990578 2.91262305
Ge 8.56763051 13.22540765 13.93930993
Ge 0.35314171 3.51684368 18.05119175
Ge -2.35501108 6.32543154 7.18624149
Ge -2.25933760 7.13385017 17.23684738
Ge -4.18061579 9.87107195 6.91260365
Ge -4.38488928 10.51499513 17.73038057
Ge -6.95971163 13.74236595 6.57204851
Ge -6.64903903 14.10432076 17.56873140
Ge 4.50498728 2.85384727 7.32343475
Ge 4.51863776 2.82611065 18.12817932
Ge 2.51986532 6.43366663 7.30082629
Ge 2.28899016 7.23142081 17.48951443
Ge 0.10826773 10.78142748 17.69887657
Ge -2.49538599 14.25476907 6.75250942
Ge -2.05599024 14.14734679 17.33998906
Ge 8.87403789 2.99556032 6.77121432
Ge 8.87871421 3.68956590 17.84737567
Ge 6.46007199 6.60881460 7.02097044
Ge 6.71823961 7.22099059 17.41428168
Ge 3.98377020 10.02651309 6.07531087
Ge 4.53540211 11.17677375 17.76083149
Ge 1.56582718 14.07336481 6.63021539
Ge 1.90565543 14.26380517 17.61305033
Ge 13.05016832 2.83678087 7.25230868
Ge 13.05181387 4.02788545 17.58031105
Ge 10.66061674 7.00137683 6.91380130
Ge 10.84104489 7.41501172 17.46160415
Ge 8.18763307 10.13046462 6.52619341
Ge 8.73686168 11.06246783 17.74762122
Ge 6.16897447 14.04726471 6.41269779
Ge 6.20836720 14.74433872 17.17468993
Te 9.20358353 1.35909224 21.16652991
Te 8.41876957 7.58012481 -0.03262799
Te 3.90323177 12.84579317 3.06435613
Te 0.10705634 2.77083860 7.44136748
Te -0.21004428 10.16207738 6.94694933
Te 2.48280153 1.69910583 8.75136871
Te 2.35410649 1.93127806 19.74665483
Te 0.24068426 5.65503520 8.83705678
Te 0.46804604 5.94462680 18.96766916
Te -2.21352218 9.06854545 8.99038787
Te -1.97328539 9.49450429 19.05545587
Te -4.22640570 12.67086424 8.64152429
Te -4.16125396 13.31291523 19.04760402
Te 6.78833561 1.82045037 8.95695516
Te 6.96008802 2.07416117 19.28129660
Te 4.46825123 5.41914925 8.71887127
Te 4.43902632 6.12197321 19.52158969
Te 2.15471786 9.10903687 8.84366757
Te 2.12555773 9.56652119 19.08133038
Te -0.19501356 12.83835260 8.92954340
Te -0.16266641 13.04372988 19.07787451
Te 10.75946095 1.90750713 8.99052119
Te 11.12584552 2.53493359 19.25140519
Te 8.48072294 5.60542188 8.84680955
Te 8.82113136 6.29450760 19.26049506
Te 6.48606610 9.32373556 8.49870380
Te 6.66199843 9.58558496 19.23281523
Te 4.19095186 13.15703469 8.35867535
Te 4.04840839 13.55320084 19.29999332
Te 15.24188346 1.92769795 8.73427202
Te 15.39169200 2.53538967 19.38113602
Te 12.70457031 5.69315381 8.52519300
Te 13.09280941 6.31869083 19.18752392
Te 10.63017061 9.49418138 8.29624354
Te 11.23258559 10.03022721 19.30734623
Te 8.55883368 13.11851240 8.16954768
Te 8.42129285 13.63576907 18.97603214
Te 0.18991571 2.53042919 2.02742752
Te 0.25742180 2.89310014 12.36934544
Te -2.03867293 6.11059147 1.65694864
Te -2.29129508 6.58598569 12.20169674
Te -4.56256101 9.93030098 1.72649685
Te -4.55473348 10.28525659 11.93079510
Te -6.60278382 13.49080777 1.68456719
Te -6.56901623 13.81285960 12.08978770
Te 4.33365285 2.62051145 1.40073625
Te 4.58143558 3.10732542 12.41820453
Te 1.91501908 6.39111436 1.51627724
Te 2.40853413 6.84814335 12.28393870
Te -0.36932179 9.94535471 1.43483018
Te -0.05298717 10.50495727 12.29017943
Te -2.81913091 13.61076756 1.51308508
Te -2.31217067 14.03023452 11.98388000
Te 8.63245308 2.76184055 1.68075538
Te 8.84977146 3.23472524 12.37180823
Te 6.20731311 6.26877878 1.38526606
Te 6.47369942 7.00834221 12.21472003
Te 4.01274145 9.99846335 1.38876371
Te 4.37207101 10.56703968 12.25049343
Te 2.02688649 13.85377383 1.12329430
Te 1.97133815 14.38130930 12.17873663
Te 12.87187239 2.89243004 1.23397394
Te 13.10357284 3.33352520 12.37340221
Te 10.89002062 6.70961765 1.75562959
Te 10.73704002 7.00837688 12.18100015
Te 8.21683880 10.42558502 1.20135301
Te 8.85942295 10.93647962 11.74178289
Te 5.93535577 14.01367549 1.04616948
Te 6.13738255 14.57088018 11.79885684
Te 0.07441665 0.36073718 5.33596856
Te 8.42859282 15.62650925 15.32517141
Te -2.13973798 4.19087790 5.39863624
Te -1.84213096 4.50746498 16.02563378
Te -4.30220827 7.59344563 5.24276210
Te 12.88793728 8.58586530 15.28516388
Te -6.51931464 11.13349272 5.19981715
Te 10.72564936 12.10998094 15.36407712
Te -4.49553373 14.97366996 4.84675420
Te -4.37233553 15.32722617 15.51774251
Te 2.28664400 3.71837758 5.26391965
Te 2.22513650 4.25244541 15.72253319
Te 0.07269429 7.78858467 5.14854787
Te 0.15958128 8.11974431 15.86397378
Te -2.23441288 11.17454877 4.88199085
Te -2.12206193 11.87765116 15.71660022
Te -0.32765376 15.12995013 4.80662017
Te 9.04386835 0.99909436 16.03609931
Te 6.45244373 4.29010243 5.10404766
Te 6.57596359 4.45002209 15.70155293
Te 4.22303995 7.59188748 4.76345116
Te 4.63007257 8.29398888 15.88794572
Te 2.21409394 11.61624975 4.92166490
Te 2.10400757 12.11537322 15.62181520
Te 12.85232148 0.81927323 5.26048444
Te 4.23416916 15.66521416 15.49415513
Te 10.78341544 4.19301721 5.09186796
Te 10.93510492 4.96972710 15.89435588
Te 8.55362053 7.91835753 4.90099219
Te 8.88166560 8.61821204 15.81728581
Te 6.34819558 11.47723093 4.89017600
Te 6.70102699 12.04760711 15.56100960
192
Time=90000.00000003 pbc="T T T" Lattice="17.23656092 0.44984923 -0.32307256 -8.63928709 14.81432310 -0.13373278 0.56977007 0.57569101 21.08885363" energy=-815.00243229 virial="-3.21906128 -15.17228929 2.31049575 -15.17228929 -21.65443416 -5.10648012 2.31049575 -5.10648012 -6.97654254" stress="0.00107490 -0.00277318 0.00042231 -0.00277318 -0.00229470 -0.00093336 0.00042231 -0.00093336 0.00038811" Properties=species:S:1:pos:R:3
Ge 8.80942899 15.34415697 10.67554205
Ge 17.07827785 0.54648001 -0.06867604
Ge 15.18480437 4.18745535 10.36301320
Ge 15.05383547 4.00623751 0.00398617
Ge 12.85165092 8.16814256 10.20873193
Ge 12.85375214 7.61267128 -0.13673645
Ge 10.77620218 12.08721568 10.21534167
Ge 10.62248834 11.55541793 -0.18121117
Ge -4.03344912 15.20563151 10.74610075
Ge 4.14000513 0.46456220 -0.07269462
Ge 2.56209120 4.43199528 10.58045032
Ge 2.15509574 3.83958333 0.20609461
Ge 0.15504247 8.01565140 10.45792407
Ge 0.17848309 7.44456005 0.14621908
Ge -1.97871039 11.76280067 10.79672314
Ge -1.98430014 11.05888466 0.04782042
Ge 0.08410134 15.27542996 10.05056160
Ge 6.63940575 3.97715000 10.30587935
Ge 6.24969312 3.99917500 -0.05327997
Ge 4.58493800 7.83287831 10.15818153
Ge 4.72322822 7.51235514 0.01554782
Ge 2.30065426 11.71437553 10.07261979
Ge 2.15416886 11.19678491 -0.09329324
Ge 4.41781131 15.34716222 9.93599779
Ge 12.86002800 0.43625427 -0.11819480
Ge 10.80107337 4.12281066 10.18512008
Ge 10.69680280 3.87963486 -0.14159645
Ge 9.19656008 7.72655687 10.21277968
Ge 6.85469414 11.52306896 9.98392274
Ge 6.34879280 11.41732939 -0.07447751
Ge 2.27462518 1.08395546 3.61503615
Ge 2.30398693 1.94545897 14.10902341
Ge 0.24821872 5.52160755 3.60392871
Ge 0.05304691 5.47543121 14.24530934
Ge -2.30289261 8.91442196 3.28234047
Ge -1.75003458 9.27470080 13.99998520
Ge -3.99126201 12.65562622 3.56271933
Ge -3.99814305 12.41106135 14.22442189
Ge 6.45095746 1.77527511 3.49397719
Ge 6.98719588 1.60098866 14.25494565
Ge 4.38185293 5.38685994 3.52716035
Ge 4.64119339 6.03181440 13.88762454
Ge 2.04228948 8.96248898 3.76138928
Ge 2.35940967 9.32949924 13.79133105
Ge 0.05886758 12.64622726 3.14961444
Ge 0.52554355 12.98746092 14.32154916
Ge 11.10246185 1.64909759 3.38525502
Ge 10.82218240 2.12853488 14.04773061
Ge 8.98842977 5.15632526 3.14558745
Ge 9.01368723 5.85084190 13.89432989
Ge 6.66511337 9.17649382 3.57134732
Ge 6.66329654 9.30948327 13.79007596
Ge 4.28513714 12.93190018 13.73480430
Ge 15.22283546 1.72200531 3.52786202
Ge 15.65353103 1.92048890 13.87460521
Ge 13.15730873 5.04151520 3.59972070
Ge 13.43868246 5.75371599 13.88886601
Ge 10.87518632 9.10922109 3.23043332
Ge 10.89816803 9.30120183 13.79670954
Ge 8.73030725 12.79304831 3.56248294
Ge 8.56922618 12.94669500 13.98585986
Ge 0.36558210 3.11940692 17.68147307
Ge -1.91667560 6.43597445 7.45892738
Ge -2.18054886 6.45386707 17.96918588
Ge -4.03376389 10.42766511 6.84739870
Ge -4.03047903 10.43529436 17.94192998
Ge -6.19202957 13.98612524 7.50965616
Ge -6.12607571 14.34821188 17.95960679
Ge 4.31022337 3.12831881 7.01246273
Ge 4.64449340 3.36135370 17.26489969
Ge 2.02004986 6.79349023 7.15538788
Ge 2.24545521 6.67390581 17.50242244
Ge 0.65856905 10.44698981 17.97702392
Ge -1.79013017 13.85419928 6.32355265
Ge -1.96539388 14.07037338 17.54809663
Ge 8.61325309 2.62985643 6.31239787
Ge 8.91916228 3.44735434 17.35656697
Ge 6.61111089 6.93823230 6.57708416
Ge 6.99804449 6.88736229 17.92801691
Ge 4.36579774 10.38327300 6.89268533
Ge 4.91239029 10.67313405 17.72552159
Ge 2.21090475 14.27749251 6.86760711
Ge 2.70713958 14.47554942 17.57115578
Ge 13.27615795 2.70122022 6.54358553
Ge 13.36378668 2.92625553 17.18768984
Ge 11.14345444 6.89153729 6.79419246
Ge 11.04885167 7.46231798 17.28535547
Ge 8.87041029 10.51397185 6.84361892
Ge 9.20599713 11.30619400 17.73590209
Ge 6.30876397 13.78402911 6.94493904
Ge 6.69042340 14.32813220 17.34347600
Te 8.85863505 0.32128036 -0.10656448
Te 8.72412719 7.52238101 -0.10843197
Te 4.26599149 12.39987806 3.50893908
Te 0.35321561 2.59660838 7.21004611
Te -0.13677679 10.11430929 7.19578238
Te 2.49060252 1.47828247 9.19415095
Te 2.44626079 2.00309826 19.47851794
Te 0.10843731 5.33461306 8.99538541
Te 0.39383634 5.57239025 19.26204603
Te -2.10722894 8.78468192 8.79235375
Te -1.75668240 9.44398768 19.63328706
Te -3.84536635 12.65849526 8.50927392
Te -3.75502142 13.06827617 19.56111929
Te 6.87351777 1.46829752 8.32542887
Te 6.44650704 2.12978311 19.26719323
Te 4.67986173 5.45025449 8.67865420
Te 4.85118246 5.77557493 19.26654137
Te 2.46236758 9.14615526 8.79484857
Te 2.77410803 9.22432316 19.13020974
Te 0.16441336 12.82352429 8.78402715
Te 0.44120891 13.26688484 19.03899015
Te 10.89957075 1.59727604 8.62419973
Te 11.46828074 2.31316652 19.08867227
Te 8.89854232 5.68803486 8.50714703
Te 9.21229975 5.76226839 19.15230388
Te 6.93716408 9.11133536 8.79774748
Te 7.20896224 9.58456819 19.25059307
Te 4.58640873 12.93368941 8.77507881
Te 4.88740207 13.07317878 19.14720595
Te 15.16433164 1.61360128 8.59652638
Te 15.62928347 2.09575992 18.96599548
Te 13.08745542 5.62481159 8.77832364
Te 13.50235806 5.56424010 19.16625752
Te 11.11892845 9.40072186 8.56546518
Te 11.22249973 9.70172029 18.97845689
Te 8.99931639 12.96678681 8.56608049
Te 9.15519718 13.31103517 19.40989122
Te -0.02090955 2.14721310 1.90079086
Te 0.31152628 2.91728543 12.29592528
Te -1.96744282 6.06708512 1.71713880
Te -1.56249372 6.80199331 12.34439420
Te -4.12320404 9.98177839 1.61086559
Te -4.01266360 10.17010270 12.38244906
Te -6.52530247 13.58859873 1.89373376
Te -6.02372712 14.13210376 12.27022882
Te 4.33733987 2.55121962 1.74751262
Te 4.79073856 2.97539763 12.11006789
Te 2.28315944 6.43623412 1.63816474
Te 2.72715312 6.71398451 12.01615986
Te 0.30120325 9.78531112 1.55816152
Te 0.45285457 10.64609426 12.37542643
Te -2.30729029 13.80127213 1.75087978
Te -1.59795966 14.28249857 12.30166802
Te 8.92902494 2.77751189 1.75362215
Te 8.83203218 3.35509645 12.24112665
Te 6.46616232 6.34714282 1.56125110
Te 6.77091005 6.95472573 12.14488065
Te 4.29671527 9.88332217 1.54573127
Te 4.55981999 10.64010431 12.17547917
Te 2.24099737 13.75750205 1.60185756
Te 2.35111292 14.22091944 12.18520569
Te 13.15993215 2.67047586 1.70615656
Te 13.40775220 3.08933622 12.43373220
Te 11.00840063 6.46226079 1.71299056
Te 11.13207841 6.70413340 12.27299289
Te 8.70769446 10.34864500 1.78884036
Te 9.17058770 10.89464061 11.97600073
Te 6.57320216 14.00997711 1.47933976
Te 6.63418182 14.27214138 12.21550925
Te 8.81649462 15.28981003 5.07512373
Te -8.06946586 15.10194570 15.55494609
Te 15.28189147 4.03673186 5.00783948
Te -1.82234111 4.37873377 16.03378416
Te 13.23315490 7.68443217 4.91795046
Te -3.93417230 8.20926490 15.90977695
Te 10.99688548 11.50038085 5.05632034
Te 11.18900000 11.93918419 15.23870650
Te 4.73048025 0.34619945 5.36364171
Te 4.66226974 0.72444121 15.94291550
Te 2.44794390 4.18124509 5.04943341
Te 2.34521812 4.43753556 15.66429571
Te 0.14603635 7.48196005 5.25362986
Te 0.18587039 8.14578547 15.94678866
Te -1.98353108 11.09979713 5.16869738
Te -1.97380080 11.70459852 16.01213464
Te 0.32564170 14.92917428 4.90535070
Te 9.11258228 0.85122931 15.90268372
Te 6.50852898 3.96037497 5.40165381
Te 6.85302913 4.72371158 15.89133392