192
Time=60000.00000005 pbc="T T T" Lattice="17.19614227 -0.32662630 1.11321713 -8.44569840 15.07958706 -0.64725144 -1.31116190 0.10282394 21.05617242" energy=-814.99287814 virial="2.86031115 3.60053260 -3.07254041 3.60053260 -6.27888158 -6.83217856 -3.07254041 -6.83217856 -1.22614406" stress="0.00235628 0.00066345 -0.00056616 0.00066345 0.00067225 -0.00125893 -0.00056616 -0.00125893 0.00160329" Properties=species:S:1:pos:R:3
Ge -0.60618011 0.32905190 10.84399628
Ge 0.05783843 0.21554000 0.22085054
Ge -2.43367204 4.20780031 10.61963483
Ge -1.71274657 4.00636812 0.02057724
Ge 12.12354886 7.14320049 11.41076052
Ge 12.73028694 7.35412965 1.01700134
Ge 9.94166716 10.79981973 11.40355677
Ge 10.89317664 10.86630025 0.85426500
Ge 3.41653200 0.12929399 10.60417836
Ge 4.11449438 0.05564600 0.60806317
Ge 1.38088993 3.87569646 11.02773568
Ge 0.84377605 3.75899688 21.12418171
Ge -0.57953121 7.77373613 10.39671700
Ge -0.36234902 7.79971429 0.33717621
Ge -2.70549332 11.21630256 10.48893514
Ge -2.10991306 11.22395462 0.02102989
Ge 8.14671433 -0.05660437 10.94789811
Ge 5.81101326 3.92390199 10.73079647
Ge 6.60544872 3.65517070 0.50612249
Ge 3.60079804 7.35412637 10.86927530
Ge 4.48830412 7.61517790 0.33942735
Ge 1.61241881 11.14466147 10.94647274
Ge 2.21184753 11.33320868 0.09591301
Ge 4.00015672 14.79970514 11.10467034
Ge 4.43233604 14.59665998 0.18896040
Ge 10.08910406 3.39021881 11.16076579
Ge 10.53007854 3.44410264 0.92813714
Ge 7.91437718 7.43994491 11.33918032
Ge 5.86469216 11.11440628 11.10538921
Ge 6.60693216 10.60502349 0.38468128
Ge 1.91035435 1.34692225 3.56984275
Ge 1.71275551 1.44123267 14.16557563
Ge -0.34431938 5.22169126 3.67718453
Ge -0.71292245 4.92299317 14.24559545
Ge -2.15573752 8.98800580 3.30179550
Ge -2.95614750 8.63727568 14.28884500
Ge -4.31684477 12.77660805 3.47463840
Ge -4.95454367 12.41772068 13.90269762
Ge 6.35898019 1.38761999 3.99080310
Ge 5.84217536 0.94169593 14.28951885
Ge 3.74073341 5.24676170 3.70704831
Ge 3.68600404 4.64455713 14.38802736
Ge 1.71611406 8.68028649 3.60904946
Ge 1.43007332 8.61721232 14.26295118
Ge 0.05703939 12.50442069 3.32868356
Ge -0.63139217 12.50836141 14.15024850
Ge 10.57226643 1.26977320 4.46157087
Ge 10.07713008 1.42999046 15.00609562
Ge 8.09421643 4.61123669 4.33460012
Ge 7.62109050 4.97869022 14.94129729
Ge 6.11787568 8.68062111 4.12422058
Ge 5.49253374 8.55234065 14.70780332
Ge 3.47000863 12.22803024 14.25296382
Ge 14.76046678 0.78079506 4.12345854
Ge 13.86193353 1.14920728 15.03462474
Ge 12.60266135 4.54750303 4.46349626
Ge 11.70820007 4.83645654 15.06780822
Ge 10.48659806 8.56376710 4.37789576
Ge 10.31134687 8.58267036 14.92234489
Ge 8.00870039 12.41105545 4.16957898
Ge 8.03571095 12.26400111 14.83180137
Ge -1.26909677 2.65711861 17.57419614
Ge -2.77230793 6.42867289 7.08727774
Ge -3.48633684 6.25289462 17.52856053
Ge -5.03797018 10.02208263 6.69299297
Ge -5.72864990 10.25330519 17.52413763
Ge -6.80210335 14.13132998 6.47339361
Ge -7.17037484 14.07653408 17.06236931
Ge 3.53243585 2.46511836 7.43908466
Ge 3.81764139 2.18657710 18.32517982
Ge 1.45632521 6.38333752 7.02831786
Ge 1.69547469 5.75708635 17.80923712
Ge -0.89319077 10.02498403 17.79105459
Ge -2.85763735 13.68624416 7.22333165
Ge -3.14062436 13.82180628 17.54919496
Ge 8.17497314 2.29326589 7.79280515
Ge 7.25484251 2.44999664 18.25181671
Ge 5.94168463 6.39605254 7.14259416
Ge 5.39975741 6.09035658 17.72548325
Ge 3.49650020 10.14151683 7.20043955
Ge 3.33207052 10.11238105 18.08328648
Ge 1.44446278 13.58268457 6.69718481
Ge 1.10867628 13.74977453 18.04025376
Ge 12.51484498 2.29918007 7.82564640
Ge 11.88092275 2.21661507 18.80025724
Ge 10.40353037 6.04226555 7.96235844
Ge 9.48627418 5.82618275 18.36905677
Ge 7.92099907 10.06209571 7.63785567
Ge 7.49183271 9.80196905 18.64903041
Ge 6.13132649 14.08058284 7.21571690
Ge 5.47056166 13.57914754 17.63916233
Te 8.66405885 -0.09969341 0.83498064
Te 8.44678868 7.43818996 0.90987880
Te 4.07198948 12.41757988 3.86269587
Te -0.55688962 2.73756693 7.00208663
Te -0.34079716 10.31584525 7.08921137
Te 1.45089433 1.30343090 9.11141160
Te 1.02984498 1.46522693 19.44682728
Te -0.46336858 4.89773705 8.90701402
Te -1.20181946 5.40283110 19.23053316
Te -2.88275919 8.63641974 8.72399807
Te -3.35130507 8.65665868 19.05048495
Te -4.94661615 12.48032933 8.61113149
Te -5.05655181 12.47434048 19.34368217
Te 5.66114844 1.10525882 9.40096046
Te 5.39134827 0.98677060 20.03518773
Te 3.74775511 4.82469854 9.40972290
Te 3.28731549 4.76124545 19.89185670
Te 1.72347744 8.70283803 9.20252182
Te 1.25172622 8.83293016 19.67189692
Te -0.50215978 12.59072463 8.85422380
Te -1.08083785 12.19017675 19.45810394
Te 10.17593641 1.06448537 9.66582812
Te 9.61062287 1.05987518 20.11874244
Te 8.27381690 4.94377643 9.27033066
Te 7.41591454 4.88966442 19.91724107
Te 5.96792415 8.48826553 9.63317585
Te 5.18129256 8.68360842 19.65715014
Te 3.78796341 12.11025048 9.24355092
Te 3.63812457 12.58369856 19.74339574
Te 14.36220639 1.05478260 10.19601792
Te 14.06024470 1.04273183 20.32152206
Te 12.39116911 4.78849353 9.83441525
Te 11.69328083 4.94275591 20.27083416
Te 10.30583890 8.30352698 9.49960837
Te 9.73162247 8.49701399 20.18426326
Te 7.99999997 11.93081239 9.53257787
Te 7.99237673 12.15414546 20.00135046
Te 0.11197824 2.62180818 1.80250369
Te -0.71015091 2.44366943 12.55536257
Te -2.07097631 6.41606654 1.75954771
Te -2.89919578 6.18423821 12.64524990
Te -4.29440479 10.08184748 1.56446129
Te -4.82187774 9.83761618 12.18957394
Te -6.25964599 13.68724363 1.33730643
Te -7.20487870 13.95298202 11.86791048
Te 4.17468573 2.42135067 2.27898584
Te 3.74967536 2.38097710 12.73335245
Te 1.94771074 6.13226525 1.78297344
Te 1.64879533 6.11515856 12.65632089
Te 0.11772619 10.24202911 1.84311131
Te -0.78614850 9.96787019 12.39182495
Te -2.46125783 13.88962667 1.86735039
Te -2.87355578 13.71474110 12.26772604
Te 8.70048115 2.18360130 2.45428063
Te 7.96281152 1.99805219 13.21649793
Te 6.29078450 6.01123675 2.37513379
Te 5.99370955 6.12817062 12.89294792
Te 4.55826001 9.80021037 2.19224386
Te 3.45543965 9.80581817 12.66420807
Te 2.25504567 13.77123242 1.86313104
Te 1.48761363 13.77552878 12.52383585
Te 12.82279311 2.31664519 2.62888612
Te 12.16853907 2.25818108 13.28456095
Te 10.73696710 5.91409325 2.46167519
Te 10.04837815 5.69158419 13.23432794
Te 8.58880626 10.04790616 2.47533330
Te 7.88002194 9.76699248 13.22961824
Te 6.41002368 13.61490630 2.02184965
Te 5.70183375 13.56485119 12.79824343
Te -8.62388831 14.99286950 4.57898282
Te -0.82895012 0.25825095 15.99070906
Te 14.73716545 3.28449660 6.00866036
Te 14.09000788 3.43979838 16.73436434
Te 12.65481735 7.19473208 5.89881128
Te 11.95531734 7.19381380 16.87600133
Te 10.58340010 10.88539774 5.96061674
Te -7.26663616 11.57990607 15.46292703
Te 3.92145056 0.10545465 5.65776102
Te -4.87864738 14.98125716 15.58086681
Te 1.87854653 3.93868057 5.40464776
Te 1.09263132 3.75376464 15.97238921
Te -0.34860037 7.66855092 5.39873893
Te -0.86487574 7.73617376 15.82007104
Te -2.27290338 11.30238697 4.98941154
Te -2.87160561 11.20755816 15.62361437
Te 8.41273572 0.00830900 5.73632374
Te -0.74474107 14.90131215 16.13591825
Te 6.06109313 3.57815397 5.95065182
Te 5.50179274 3.53022465 16.36050172
Te 3.93748391 7.43094475 5.63547226
Te 3.33121311 7.59735253 16.10704523
Te 1.84684037 11.35290619 5.31443709
Te 1.18904029 11.50840695 15.91196384
Te 12.62807285 0.02173644 6.31723859
Te 3.61621885 14.86360847 16.04336413
Te 10.42605500 3.62949980 5.84611206
Te 9.58962617 3.39403512 16.87701146
Te 8.59473184 7.15623957 5.87752445
Te 8.00107600 7.17136156 16.50948041
Te 5.97243400 10.98218083 5.78659892
Te 5.76058162 11.13554420 16.12109211
192
Time=70000.00000007 pbc="T T T" Lattice="17.36371378 -0.20579157 1.10985430 -8.30916562 14.99280374 -0.60950582 -1.31114511 0.31245324 20.93535638" energy=-813.26931316 virial="-8.45339077 -7.84048910 4.42306528 -7.84048910 5.97451068 -2.90510795 4.42306528 -2.90510795 7.04787025" stress="0.00027091 -0.00144123 0.00081304 -0.00144123 0.00292303 -0.00053401 0.00081304 -0.00053401 0.00312033" Properties=species:S:1:pos:R:3
Ge 8.35044272 14.46527876 11.14391977
Ge 0.03357242 0.01140764 0.24471274
Ge 14.86982444 3.17441608 11.68659114
Ge 15.05976634 3.40986792 1.47537832
Ge 12.68864045 7.10850160 11.15980756
Ge 12.47593841 7.21412057 1.46065960
Ge -6.62345206 11.39124726 10.44514132
Ge 10.88728292 10.65621765 0.89983007
Ge -4.57507649 15.04267673 10.22005930
Ge -3.71685232 14.79385765 0.09852440
Ge 1.74435036 3.85699023 10.94612309
Ge 2.10313860 3.80583934 0.20308999
Ge -0.56826415 7.31667618 10.13758372
Ge 0.35255704 7.96801515 0.06214157
Ge -2.47514606 11.29264685 10.57637697
Ge -1.75514741 11.39537404 0.05071129
Ge -0.41022077 14.86589330 10.36989564
Ge 5.90153067 3.93071114 11.21891654
Ge 6.43505525 3.33283627 0.43051623
Ge 3.98655404 7.12858131 10.81116636
Ge 4.40325254 7.26792460 0.51182143
Ge 1.69562330 11.24240773 10.70107820
Ge 2.29277783 11.17145023 0.42809892
Ge 4.24432962 14.72154043 10.70696656
Ge 4.60586328 14.80190780 0.71825367
Ge 10.29787982 3.95591000 11.52616641
Ge 11.01791784 3.71156026 1.14936803
Ge 8.17817189 7.67051741 11.13282258
Ge 6.15084898 11.39097545 10.74125813
Ge 6.71753973 11.33561108 0.74514973
Ge 1.87274583 0.84322562 3.54651107
Ge 1.37644212 1.30340234 14.36522277
Ge -0.05325537 5.20109805 3.53696093
Ge -0.73512185 5.27834260 14.30256317
Ge -2.46196978 8.61960797 3.34436695
Ge -2.60347346 8.90237945 14.01866691
Ge -4.23541124 12.33452954 3.40288724
Ge -4.76856766 12.56695076 13.63055784
Ge 6.02629924 1.38146847 3.86792991
Ge 5.98431948 1.44422611 14.70619431
Ge 4.05413679 4.97842020 4.00034925
Ge 3.99105301 5.04686091 14.34482391
Ge 2.36457072 8.97619836 3.84215115
Ge 1.31401902 8.77726828 14.26123057
Ge 0.44070924 12.55811631 3.81196865
Ge -0.25150703 12.38716874 13.56130146
Ge 10.45411190 1.37374483 4.65589291
Ge 10.23258033 1.00148521 14.55448037
Ge 8.33823579 4.68675598 4.60694369
Ge 7.94025035 4.95550566 14.57095615
Ge 6.21770150 9.01304241 4.06991118
Ge 5.62069734 8.81166423 14.61785602
Ge 3.67440430 12.35021051 14.47009819
Ge 14.96558700 1.36374482 4.51769857
Ge 14.09094115 1.15425574 14.94526874
Ge 12.79034746 4.62949349 4.39124783
Ge 12.35988057 5.08674667 15.18603132
Ge 11.09651080 8.51608782 4.37252214
Ge 9.76318181 8.77437024 15.11000489
Ge 9.00234783 12.22950853 4.19900017
Ge 8.35725853 12.06419262 14.58140707
Ge -0.80207426 2.44089096 17.69122499
Ge -2.47403475 6.36999740 7.38996717
Ge -3.18847909 6.22919293 17.57145559
Ge -4.77928428 10.10691384 6.98007584
Ge -5.22049670 10.02456922 17.37137296
Ge -6.69705843 13.82530132 6.72001906
Ge -7.22080751 14.05936491 17.17138018
Ge 3.79817946 2.50303848 7.29631954
Ge 3.56285156 2.46508155 17.76938562
Ge 1.50056194 5.91010566 7.09472941
Ge 1.21057512 6.09870673 17.89047248
Ge -1.15970734 10.17686837 18.07745879
Ge -2.36075007 13.83892110 6.76382289
Ge -2.60494970 13.88724107 17.39323532
Ge 8.11903565 2.52395950 7.92462267
Ge 7.90058362 2.76257498 18.38808022
Ge 6.01864761 6.41932122 7.41326459
Ge 5.44900752 6.50196359 18.32127394
Ge 3.96531102 10.05861249 7.45884379
Ge 3.36870558 10.62161212 18.08118354
Ge 1.75505915 14.29875078 6.94702322
Ge 1.29505367 13.74849360 18.04317684
Ge 12.50216591 2.44765810 7.88917106
Ge 11.81684894 2.63747624 18.99554127
Ge 10.25913668 6.22269601 7.75622749
Ge 9.60274809 6.19295337 18.32258514
Ge 8.58109680 9.79736936 7.16616437
Ge 7.66164284 10.53973649 18.19617666
Ge 6.51724337 13.79318871 7.47107930
Ge 5.56781112 14.04150270 18.22739174
Te 8.86344229 0.02991633 0.92413135
Te 8.64219151 7.11951195 0.78256644
Te 4.28347305 13.04865580 3.94557600
Te -0.59428785 2.15210976 7.17085689
Te 0.05586449 9.89492724 6.71626274
Te 1.63965740 1.31554856 8.90377218
Te 1.17452727 1.69293478 19.43079475
Te -0.40497067 4.81240823 8.97306155
Te -1.10117247 5.30828444 19.35245978
Te -2.60368262 8.76563800 8.69828614
Te -3.27472525 9.15095744 19.37385365
Te -4.42347592 12.78634514 8.69992213
Te -5.04719620 12.77284779 18.68531781
Te 5.88485087 1.47417925 9.25500807
Te 5.39093587 1.43293503 19.78968471
Te 3.74019032 4.95657123 9.07675873
Te 3.33019177 5.26021700 19.74384540
Te 2.08475093 8.76079482 8.84214899
Te 1.10458009 9.05669271 19.40295922
Te -0.23839487 12.67926827 8.84257247
Te -1.13727833 12.65652780 19.29810100
Te 10.12363336 1.43712921 9.70876143
Te 9.84396528 1.47045556 20.14336157
Te 8.40357366 5.13004175 9.40100690
Te 7.58825288 5.09545194 19.93582918
Te 6.66418026 8.74768610 9.26952118
Te 5.49074383 8.93864610 19.56013413
Te 4.41144763 12.62459443 8.76066001
Te 3.19543117 12.68352417 20.01613801
Te 14.74659824 0.81331983 9.96789951
Te 14.08666348 1.32930819 20.47153626
Te 12.51288898 4.86833356 9.63662078
Te 11.88844583 5.26670085 20.14592308
Te 10.63190631 8.84904350 9.62350923
Te 9.77907366 8.65785311 20.19920844
Te 8.72985876 12.49402084 9.49007152
Te 7.65628968 12.67725138 19.78585984
Te -0.15923167 2.37407923 1.81159687
Te -0.63803781 2.46146855 12.39350106
Te -2.33439295 6.39351934 1.70996950
Te -2.65377395 6.28879591 11.87483232
Te -4.44922970 10.05884866 1.56746479
Te -4.95582782 10.15761089 12.29868509
Te -6.30436345 13.80091856 1.04008942
Te -7.17604664 13.92667474 12.12199470
Te 4.28836113 2.46333420 2.02291325
Te 3.56586595 2.72400264 12.63417362
Te 1.92205949 6.34802709 1.94964691
Te 1.33775586 6.66591301 12.14833340
Te 0.06874744 10.08427659 1.96727774
Te -0.32559250 10.04837789 11.87916834
Te -2.01231543 13.62400351 1.79285200
Te -2.55268718 14.06261004 12.05572089
Te 8.62844309 2.55686075 2.48850545
Te 7.70957896 2.81814400 12.92140863
Te 6.19465232 6.18439278 2.20127423
Te 6.11613520 6.43187132 12.55414563
Te 4.39819269 9.82909543 2.08285689
Te 3.92081678 9.82380583 12.54075502
Te 2.11740486 13.91251404 2.04628041
Te 1.75512576 13.71385884 12.10541428
Te 12.79893468 2.26578668 2.63272839
Te 12.33616164 2.50774404 12.84618512
Te 10.64624995 5.96125191 2.77269672
Te 10.43375557 6.39106222 13.15956303
Te 8.61126817 10.07953981 2.31910316
Te 8.45881871 9.86422727 12.77693821
Te 6.90414180 13.63719833 2.28923850
Te 6.06363503 13.68219541 12.66742673
Te -8.35345884 14.77339847 4.64537799
Te 8.06377717 14.93188484 16.55474241
Te 14.67713439 3.43972718 6.32781677
Te -3.03762309 4.22230407 15.91256975
Te 12.88571383 7.14641282 6.24138875
Te -4.88748802 7.75227540 15.51294667
Te -6.19470464 11.17467852 4.80514812
Te -6.98639204 11.68065462 15.38809196
Te -4.58738144 15.02043889 4.74350022
Te 3.36251618 0.20601745 15.95048089
Te 1.84423788 3.60985441 5.54055925
Te 1.33484645 4.02775950 15.95002146
Te -0.05692437 7.49221957 5.27759556
Te -0.65259102 7.73971714 15.88168027
Te -1.90739758 11.57185026 5.31682629
Te -2.81979840 11.31817914 15.47177687
Te 8.00845850 0.25646462 5.63156012
Te 8.00594092 0.17205486 16.10532499
Te 6.24313205 3.74818345 5.95697640
Te 5.83995917 3.88824169 16.00999602
Te 4.15774172 7.57817567 5.58645725
Te 3.63456733 7.49401227 16.08944915
Te 2.38051597 11.48836714 5.47085282
Te 1.31755968 11.39826940 15.65456544
Te 12.89269914 0.26693098 6.25758670
Te 11.84540497 0.10581544 16.70401781
Te 10.65077156 3.67620233 6.26931132
Te 10.17966949 3.67336730 16.59607210
Te 8.55852733 7.31119633 5.89504197
Te 7.91016775 7.34551403 16.38452711
Te 6.66584890 11.27275677 5.77726013
Te 5.64786192 11.17689528 16.12891384
192
Time=80000.00000008 pbc="T T T" Lattice="17.28066297 -0.11638168 1.22059261 -8.35441097 15.08730514 -0.30563819 -1.16549431 -0.19768559 21.06522354" energy=-815.48427439 virial="-14.61449054 -0.31418117 -10.79262677 -0.31418117 -27.11415615 -9.28372247 -10.79262677 -9.28372247 -19.17336229" stress="-0.00085318 -0.00005719 -0.00196445 -0.00005719 -0.00312834 -0.00168980 -0.00196445 -0.00168980 -0.00168297" Properties=species:S:1:pos:R:3
Ge 16.48942375 -0.18581504 11.64513252
Ge -0.06785491 0.17522972 0.26938070
Ge -2.65489128 3.81770037 10.49051052
Ge -1.93996798 3.70624960 0.00601365
Ge -4.51048504 7.17350708 10.37650533
Ge 12.85263218 7.37941100 1.40047890
Ge -6.87355718 11.27823672 10.55521556
Ge -6.21713161 11.19119818 0.11606410
Ge -4.92358478 14.95507990 10.54124309
Ge -3.78802945 14.73744646 0.02847562
Ge 1.79740692 3.78782912 11.05796440
Ge 2.13164396 3.71683685 0.41412253
Ge -0.07099367 7.03786204 10.72715191
Ge 0.15697246 7.97449979 0.63524734
Ge -2.44826171 11.53411756 11.03357022
Ge -2.04607951 11.26589429 0.14498081
Ge 7.87904024 0.04468935 11.20580955
Ge 5.70021367 3.15219178 11.38947346
Ge 6.88883357 3.90057720 0.87043325
Ge 3.91752193 7.49144668 10.92396756
Ge 4.66237831 7.54351140 0.62340385
Ge 1.45159320 10.94553208 11.08527058
Ge 2.62822844 11.08877780 0.66631976
Ge 4.14944847 14.66159409 11.10965445
Ge 13.15489655 -0.01093092 1.20566542
Ge 10.39652265 3.88559711 11.45578053
Ge 9.69218144 3.60154107 21.84476238
Ge 7.79325086 7.24527441 11.53371456
Ge 6.29198284 10.97420133 11.25982303
Ge 6.81289206 11.30237551 1.01780264
Ge 1.91493288 0.85166167 3.94539141
Ge 1.18117178 0.94602355 14.43564142
Ge -0.64552144 5.19415296 3.83927931
Ge -0.65285234 4.95993520 14.24656830
Ge -2.20261154 8.78229762 3.56159388
Ge -2.57211618 8.81702338 14.15443633
Ge -3.95791295 12.52288180 4.04495239
Ge -4.59972149 12.47073641 14.11863294
Ge 6.52999504 0.98880470 4.05082923
Ge 5.93855554 1.32638073 14.83403609
Ge 4.13016099 4.86796781 4.08119119
Ge 3.57797374 4.96421547 14.51023175
Ge 2.06175224 8.41429291 3.94046071
Ge 1.68768967 9.11812496 14.64869450
Ge 0.19136429 12.70275084 3.93544226
Ge -0.54870478 12.67845624 14.35410114
Ge 10.72529662 1.33226935 4.05751009
Ge 10.21363858 0.58903984 14.58262223
Ge 8.47992344 4.84039953 4.34597090
Ge 8.11371092 5.33612528 14.97201895
Ge 6.24528092 8.71976649 4.63933464
Ge 5.51984787 8.41581452 14.79509425
Ge 3.80933050 12.20937352 14.71862415
Ge 15.11815414 1.08678815 5.23292286
Ge 14.31557865 1.17996873 15.19532127
Ge 12.88420683 4.87349675 4.67733578
Ge 12.40455627 4.62341784 15.15982858
Ge 10.95556518 8.35116877 4.87262204
Ge 10.01614416 8.45462298 15.31391405
Ge 8.94460242 12.22928741 3.96644503
Ge 8.34722704 12.39952009 15.30570894
Ge -0.63611155 2.41838144 17.78893855
Ge -2.30342329 6.36436708 7.67444628
Ge -2.84896364 6.26693393 17.89630386
Ge -4.58206932 9.89714356 6.94385557
Ge -5.33552202 9.50004855 17.52970072
Ge -6.36101891 13.44477620 7.07906578
Ge -6.64541816 13.77625095 17.67179229
Ge 3.95485883 2.59452462 7.36138735
Ge 3.30733512 2.14799763 18.05812003
Ge 2.02704375 6.35448582 7.55022934
Ge 1.48062759 6.32338552 18.18329519
Ge -0.89515371 10.22936306 18.14451286
Ge -2.30007427 13.24479012 7.21624625
Ge -2.54972609 13.84815313 17.84842161
Ge 8.15487843 2.12102647 7.99596964
Ge 8.04507133 2.33459214 18.42365095
Ge 6.20717523 5.91666548 7.59378572
Ge 5.60765843 5.92450579 18.34462889
Ge 4.42789356 9.69086535 7.44082783
Ge 3.48588361 9.61678289 18.46225092
Ge 2.09509461 13.32839804 7.49391136
Ge 1.40809176 13.30017212 18.61318688
Ge 12.22420306 2.09452868 8.26541466
Ge 12.13267023 2.05741072 18.43586099
Ge 10.23054758 6.01583142 8.09643985
Ge 9.87727964 6.19889964 18.65629297
Ge 8.46174013 9.79553510 8.35951250
Ge 7.87367539 9.99977572 18.71577956
Ge 6.34276881 13.76638652 7.77246621
Ge 5.74186112 13.62984442 18.79874550
Te 8.97603227 0.05940768 0.81371281
Te 8.74982810 7.52424355 0.84303159
Te 4.30944879 12.39120057 4.25826419
Te -0.36600783 2.54638653 7.48519018
Te -0.11975277 10.08211800 7.44721669
Te 1.60393927 0.98281010 9.16403840
Te 1.14795403 1.05679039 19.71070843
Te -0.10516699 4.92219116 9.18402656
Te -1.10458539 4.84038249 19.33935742
Te -2.62090805 8.82204427 9.04762472
Te -3.00180776 8.57515213 19.62761601
Te -4.48737092 12.31851535 9.08319770
Te -4.85532180 12.45380003 19.20046118
Te 5.69009031 1.14358655 9.32132365
Te 5.42764720 0.93886539 20.17858422
Te 3.80761358 5.06707382 9.20439914
Te 3.25466919 4.65749211 19.80372120
Te 1.75960204 8.59466674 9.37883766
Te 1.07036025 8.73467154 19.76397891
Te -0.25778440 12.47308891 9.47161778
Te -1.01704403 12.44984689 19.85802248
Te 10.14284907 1.10164058 9.95619658
Te 9.94737090 0.97821101 20.26124627
Te 8.05956994 5.14639600 9.69661012
Te 7.61610018 4.83018988 20.18665357
Te 5.89845559 8.43464429 9.27465933
Te 5.71757694 8.41721360 19.85683054
Te 4.09125785 12.40408632 9.51670969
Te 3.60182729 12.36596176 20.03592141
Te 14.62809910 1.03503144 10.04969196
Te 14.02077061 0.91355011 20.63534926
Te 12.61612238 4.81370723 9.77256267
Te 11.73799353 4.88146009 20.57425355
Te 10.57397742 8.36785092 9.79209664
Te 9.69237444 8.71437390 20.32298160
Te 8.51929739 12.18758270 9.95936511
Te 7.78086022 12.39727408 20.27863626
Te -0.16763687 2.76689322 1.93472053
Te -0.81251464 2.21569812 12.32026928
Te -2.22577448 6.28065578 1.62810501
Te -2.76372167 5.94391026 12.32527765
Te -4.36580685 10.12406478 1.71799132
Te -5.16224869 9.94132391 12.34643220
Te -6.39330649 13.98049148 1.74614456
Te -6.92354107 13.56855143 12.22590015
Te 3.97991783 2.43972113 2.51128118
Te 3.49183155 2.11450847 12.90799508
Te 2.30376994 6.37299479 1.93632903
Te 1.53561639 6.21999123 12.72360928
Te 0.25463916 10.30568169 1.98322429
Te -0.46890878 10.13798763 12.70823734
Te -2.09874617 13.75135200 2.23103414
Te -2.71952796 13.78913832 12.71848757
Te 8.60119410 2.40062498 2.65557693
Te 7.74494397 2.36540503 12.86325870
Te 6.36528333 6.08988058 2.59497308
Te 5.58400978 6.14783657 12.83190918
Te 4.47066910 9.86729882 2.24130943
Te 3.77829593 9.82388457 12.83769947
Te 2.48467807 13.83308874 2.38476071
Te 1.79827322 13.42799836 12.83437544
Te 12.94986083 2.37536018 2.72588745
Te 12.33578004 2.50760629 13.07168609
Te 10.81976400 6.06939346 2.74640473
Te 10.26629813 5.96200582 13.51110675
Te 8.70426494 10.10552813 2.69360778
Te 8.23910863 9.65564925 13.04829012
Te 6.78263670 13.66902261 2.67613836
Te 6.00467439 13.62878105 12.87875307
Te 8.57659237 14.70733214 6.41311086
Te 16.25988190 -0.25838250 17.05414416
Te 14.77915979 3.60882644 6.60570005
Te 14.22205181 3.52086928 17.09280705
Te -4.32727024 7.34152022 5.23544419
Te 12.02540853 7.21169928 16.97211106
Te -6.34616722 11.34224239 5.18639320
Te -7.17108227 11.34018070 15.68823857
Te -4.35538051 14.84483866 5.63277381
Te -4.98179670 14.75547534 15.55444056
Te 2.01773763 3.65939976 5.65236306
Te 1.35499695 3.45102904 16.19885371
Te -0.12953009 7.55497586 5.62157373
Te -0.74086929 7.33902503 15.85409220
Te -2.09130126 11.23777279 5.49700603
Te -2.70515958 11.06839765 15.81767113
Te -0.09455541 14.94274529 6.17196815
Te 7.66629174 -0.01616752 16.53618650
Te 6.36163671 3.66360958 6.03555167
Te 5.47440937 3.55911203 16.64003785
Te 4.04058551 7.44555176 5.69844091
Te 3.54921457 7.47974060 16.46869918
Te 2.12170408 11.07790841 5.70402191
Te 1.55310110 11.38244552 16.40695987
Te 12.69741799 -0.03041451 6.12870789
Te 12.02143872 -0.21795055 16.75494718
Te 10.63648239 3.53866746 6.30158672
Te 9.99691412 3.71026848 16.65323495
Te 8.58624081 7.55557746 6.10670183
Te 7.59593706 7.36219641 16.69287161
Te 6.66385234 11.20314441 6.41923861
Te 5.95142965 11.03532212 16.52667020
192
Time=90000.00000003 pbc="T T T" Lattice="17.27132441 -0.41687779 0.94259707 -8.27210684 15.10656318 -0.19875362 -1.14872329 -0.33912605 20.95547074" energy=-816.85274047 virial="-11.57504868 2.13408055 2.28612899 2.13408055 -5.15503373 2.21324618 2.28612899 2.21324618 2.14567811" stress="-0.00030429 0.00039408 0.00042215 0.00039408 0.00088122 0.00040870 0.00042215 0.00040870 0.00222936" Properties=species:S:1:pos:R:3
Ge 8.40755784 14.47550951 11.63738230
Ge 8.87429156 14.52213224 1.11969969
Ge 14.52615442 2.95521360 10.97521252
Ge -2.08246644 4.09881518 0.19845909
Ge -4.58893666 7.67733438 10.57843705
Ge 12.92281385 7.22785963 1.10065512
Ge 10.08143217 10.75055958 11.67728772
Ge 11.07506128 10.65641995 1.15367412
Ge -4.70250585 14.73532521 10.24013148
Ge -5.10425599 14.65021965 20.95021481
Ge 1.39397831 3.46757338 10.80852738
Ge 2.29340420 3.88476281 0.29221611
Ge -0.72136994 7.37799477 10.95834758
Ge 0.05080524 7.51621649 0.46077612
Ge -2.40494323 11.14147059 10.60081790
Ge -3.11630209 10.94785987 20.95513115
Ge 7.66050410 -0.34742806 11.17123897
Ge 5.87975925 3.20583222 10.83223106
Ge 6.45722065 3.37367752 0.55742063
Ge 3.97451235 7.24696248 10.78043363
Ge 4.32222250 7.73941689 0.95298892
Ge 1.76756764 10.92288665 10.90828546
Ge 2.62745827 11.25116861 0.86563129
Ge 12.03743384 -0.25381605 10.78021334
Ge 12.98024594 -0.31473778 1.17677548
Ge 10.46374694 3.33169001 11.54577734
Ge 9.87487420 3.08262184 21.52406457
Ge 8.48616988 7.12055910 10.87842694
Ge 6.04595177 11.12828670 10.91844093
Ge 6.56099440 10.97151431 0.97005407
Ge 1.75333782 1.04428759 3.69561446
Ge 1.23855505 1.01026749 14.26652148
Ge -0.24440523 4.53476145 3.93330242
Ge -0.59450422 4.58234973 14.24927984
Ge -2.36951022 8.76921935 3.36639654
Ge -2.68255485 8.13228487 14.33502520
Ge -3.92399711 12.41494048 3.25366329
Ge -5.00507438 12.15635793 14.37560608
Ge 6.71741085 0.93269875 3.46380672
Ge 5.92643757 1.09869154 14.48239936
Ge 4.02822067 4.74459187 3.72207218
Ge 3.67033598 4.86449085 14.32890515
Ge 1.77158279 8.40673322 3.91666975
Ge 1.67675598 8.26739846 14.53604795
Ge -0.13492110 12.36784696 3.73799914
Ge -0.56044244 12.38219612 14.20793578
Ge 10.75072655 0.95683559 4.39851843
Ge 10.19693308 0.60633085 14.96515085
Ge 8.35932642 4.68662741 4.26167069
Ge 7.94130872 4.43660075 14.60968025
Ge 6.34781789 8.45271383 4.38546419
Ge 5.96325207 8.25402975 14.60106868
Ge 3.61858170 11.51781818 14.47625713
Ge 14.72106925 1.07571099 4.48128034
Ge 14.45678661 0.40084580 14.88556447
Ge 12.59293099 4.42426462 4.22677450
Ge 12.22922777 4.26354332 14.80995781
Ge 10.87597366 8.56346877 4.17201923
Ge 10.01965869 8.02751223 15.07502765
Ge 8.78161711 11.94747098 4.45983508
Ge 7.75518767 11.80593873 14.62954435
Ge -0.99618921 2.06105905 17.25184193
Ge -2.65560856 6.21154992 7.27287910
Ge -3.36712635 5.89722520 17.63242253
Ge -4.66123597 9.94295888 6.85476683
Ge -5.18509835 9.88623868 17.31618327
Ge -6.39111519 13.83424819 6.91702436
Ge -7.23405713 13.86524515 17.66160297
Ge 4.08955643 2.12304883 7.26959541
Ge 3.41304069 2.30849830 18.43448765
Ge 1.67351105 5.70284856 7.32674616
Ge 1.16587645 5.80777506 17.66343432
Ge -0.63722870 9.98918246 18.02086551
Ge -2.49704063 13.59163011 7.09157600
Ge -2.70799420 13.50320634 17.59238576
Ge 8.29508395 2.17232077 7.08981163
Ge 7.86874752 2.21650807 18.07117163
Ge 6.36385889 6.10443248 7.67581731
Ge 5.46093663 6.00455560 18.28028041
Ge 3.84806114 9.56648847 7.49280664
Ge 3.69906543 9.77573304 18.34730076
Ge 1.72851649 13.90781242 7.69078565
Ge 1.68720188 13.45040418 18.27456801
Ge 12.57193386 1.95476159 8.09440430
Ge 12.12442507 1.98589165 18.43485060
Ge 10.71181721 5.89880741 7.62952653
Ge 9.88432660 5.57726832 18.27452512
Ge 8.51742829 9.91360957 7.64942392
Ge 7.87574420 9.13396614 18.35117905
Ge 6.25874187 13.10936320 7.59896980
Ge 5.75032000 13.11148943 18.36616884
Te 8.74945740 -0.05561569 0.79136612
Te 8.81212023 7.17548548 0.76396700
Te 3.98426045 12.26116760 4.54090305
Te -0.40387273 2.26155758 7.06932168
Te -0.22528184 9.66822168 7.33439723
Te 1.55243840 0.86825144 8.97792445
Te 0.94897830 1.14343757 19.73513889
Te -0.44514779 4.74726854 9.02338145
Te -0.99454530 4.93218733 19.49969311
Te -2.50153631 8.51332924 9.13168546
Te -2.92155887 8.67132910 19.44691362
Te -4.32325160 12.29788159 8.73506690
Te -4.93248244 12.27518772 19.09565621
Te 6.07081787 1.01469426 8.91961390
Te 5.38333482 0.52392650 19.59552817
Te 3.97012507 4.42242654 9.20069546
Te 3.60460387 4.59568119 19.82935844
Te 1.92618272 8.44539970 9.44152657
Te 1.38016188 8.28282224 19.61480685
Te -0.42944412 12.46168172 9.15475929
Te -0.67373975 12.20601978 19.57823433
Te 10.08667870 1.03398186 9.28090349
Te 9.98782309 0.69462000 20.20789464
Te 8.36990930 4.49301026 9.70071133
Te 7.85679438 4.29956438 19.95622669
Te 6.44759839 8.42749512 9.56929220
Te 5.59020590 8.17031727 19.82910818
Te 3.99485217 12.27670368 9.11712395
Te 3.48994409 12.02808556 19.98896510
Te 14.35392064 0.65665048 9.56030510
Te 14.21435360 0.62481348 19.99364335
Te 12.40424118 4.50959159 9.72055986
Te 12.13083852 4.50608668 20.31404161
Te 10.76370725 8.40959966 9.71865724
Te 9.94443012 7.97474681 19.92284304
Te 8.37553156 12.09912069 9.48292701
Te 7.75904863 12.00058706 20.08333452
Te 0.11335634 2.52005768 2.03856706
Te -0.55909940 2.20982122 12.46328484
Te -1.89633663 6.29399021 2.09487275
Te -2.75091496 6.02002030 12.39463691
Te -4.17701080 10.23176830 1.80372749
Te -5.03677150 9.78846579 12.36591523
Te -6.26393748 13.72524094 1.67924119
Te -6.67231706 13.66457749 12.13118001
Te 4.55461592 2.31448273 2.24339980
Te 3.97136239 2.32310618 12.79791147
Te 2.06084026 6.13165772 2.11494142
Te 1.70452031 5.86932901 12.51027276
Te 0.18778692 10.12324798 2.12253498
Te -0.34217822 9.51592272 12.87244873
Te -2.04667168 13.71341423 1.78697037
Te -2.64911608 13.75424579 12.44955074
Te 8.73376539 2.43349924 2.47034527
Te 8.59230159 2.07936091 13.17964217
Te 6.43603299 5.91201532 2.41312701
Te 6.06718186 5.85917187 13.06419059
Te 4.64464608 9.89482969 2.51439325
Te 3.78418114 9.57042892 12.58169760
Te 2.46527387 13.69824644 2.29859369
Te 1.81149068 13.31325911 12.83948264
Te 12.99270854 2.26873554 2.63132375
Te 12.46035036 1.96003919 13.24714295
Te 10.89851092 5.98584403 2.74302836
Te 10.39760739 5.86663649 13.26889673
Te 8.72189621 9.48166078 2.62610122
Te 8.35437641 9.28319369 13.23924764
Te 6.72591618 13.50377405 2.55667903
Te 6.12666147 13.26985027 12.75488818
Te 8.78932789 14.46200180 5.91576910
Te 8.10398361 14.20426974 16.61815012
Te 14.75822580 3.41692899 6.28698604
Te -2.83361631 3.52142176 15.77553863
Te -4.35445824 7.51214655 5.32376297
Te -5.03654730 7.45247466 15.76022931
Te -6.46483274 11.20860198 5.18756115
Te -6.95164248 11.04525404 15.60985066
Te 4.01071201 -0.13242910 5.46761824
Te 3.26389947 -0.32284458 16.13967729
Te 1.97862071 3.34725092 5.60992050
Te 1.71751144 3.36380497 16.21949788
Te -0.16647058 7.08680092 5.44059945
Te -0.64623583 7.02864204 16.09066370
Te -2.33176323 11.18179501 5.23254551
Te -2.68278185 10.91707257 15.86954365
Te 8.61223463 -0.21783250 5.76807836
Te -0.24781843 14.55091517 16.14234645
Te 6.24974526 3.45304897 5.49228759
Te 5.96212589 3.32388881 16.30379716
Te 4.39757046 7.19817058 5.92324485