192
Time=60000.00000005 pbc="T T T" Lattice="17.03879957 0.19504856 -0.25752620 -8.63918950 14.99732073 0.23808124 0.36407172 -0.18688991 21.41640417" energy=-812.37908211 virial="-2.15420724 -2.39041958 -1.21153229 -2.39041958 -19.15432042 -1.37373413 -1.21153229 -1.37373413 -26.35575224" stress="0.00171116 -0.00043388 -0.00021990 -0.00043388 -0.00137449 -0.00024934 -0.00021990 -0.00024934 -0.00268160" Properties=species:S:1:pos:R:3
Ge -8.17008991 14.78841486 11.10569457
Ge 16.77441396 0.49051039 0.02852535
Ge -1.53548974 3.66908956 10.89067925
Ge 14.96461412 3.84774259 21.05009195
Ge -3.93743949 7.56262129 10.96204750
Ge 12.63511166 7.38371287 -0.11164055
Ge 10.67174202 11.43365482 10.73078266
Ge -6.23393673 11.12932161 0.25681611
Ge -4.23625004 14.92950948 11.36200452
Ge 4.68412838 -0.10110154 21.10497337
Ge 2.51080374 3.61852359 10.68550370
Ge 2.51791000 3.68964927 21.26535504
Ge 0.26624974 7.27673838 11.02479897
Ge 0.12245735 8.03484542 0.18335865
Ge -1.67376918 11.25208962 10.77654487
Ge -1.97925804 10.96957004 0.41674357
Ge 0.09129144 14.88432646 10.92442318
Ge 6.79473395 3.79977885 10.90895866
Ge 6.34559027 3.98170032 0.62001234
Ge 4.61213482 7.73721209 10.95052217
Ge 4.06284757 7.35566122 0.11364249
Ge 2.12812057 11.50006313 10.56491539
Ge 2.43649640 11.46209181 0.97515303
Ge 4.25080129 14.91223748 10.52230882
Ge 12.85515594 0.20024588 0.43696608
Ge 11.03867625 3.53051529 10.86329222
Ge 10.66541078 4.03437847 -0.04717303
Ge 8.75677903 7.82549303 11.01819048
Ge 6.21726032 11.31726648 11.17527215
Ge 6.49384915 11.39524107 0.35640076
Ge 2.18083083 1.62865995 3.55488349
Ge 2.47910764 0.90289723 14.65580730
Ge -0.53949657 5.16204174 3.67518756
Ge 0.33340820 4.57819973 14.46118439
Ge -2.25996145 8.35438999 3.90549082
Ge -1.51202963 8.55043320 14.42018976
Ge -4.53971993 12.60712411 3.87448047
Ge -3.98455164 12.28665181 14.47809177
Ge 6.16175261 1.07585114 3.64176653
Ge 7.01693677 1.13310638 14.30469041
Ge 4.09644880 4.98554824 3.48486900
Ge 4.62573704 4.88578730 14.20233643
Ge 2.28029442 8.47046849 3.72547485
Ge 2.35054347 8.37952372 14.41482328
Ge -0.24657690 13.25558504 3.91923519
Ge 0.04767971 11.76776165 14.72509265
Ge 10.88488507 1.49863857 3.91632437
Ge 10.83495048 0.70746286 14.15228762
Ge 8.60053380 5.40456459 3.96053400
Ge 8.75006341 5.29035646 14.41514906
Ge 6.97938422 8.93435368 3.78254424
Ge 6.50840868 8.70600594 14.84027111
Ge 4.65245964 12.15599125 14.68497901
Ge 14.94088621 1.34808195 3.68789621
Ge 15.37755170 1.19978313 13.85405387
Ge 12.36105731 5.33746343 3.51710264
Ge 12.84940228 5.05651241 14.48721044
Ge 10.67395572 9.32855209 3.88040943
Ge 11.35106407 8.90553735 14.20710349
Ge 8.53728219 12.70547137 3.85711226
Ge 8.54488762 12.59184858 14.57386116
Ge 0.18740012 2.22289997 18.11674482
Ge -1.95360964 6.27018386 7.59472884
Ge -2.04337741 5.98085667 17.81635284
Ge -3.88850114 10.13049862 7.32822458
Ge -4.07135363 10.07251654 18.23750420
Ge -6.33072175 13.76532464 7.76081122
Ge -6.12143025 13.71211629 17.84123542
Ge 4.35513405 2.53576745 7.12374625
Ge 4.77272692 2.37984813 17.90708166
Ge 2.73791671 6.22706729 7.42527043
Ge 2.50502864 5.79141598 18.27610477
Ge 0.36290150 10.06924708 18.46405084
Ge -2.59300399 14.06591531 7.08475966
Ge -1.71767413 13.79456491 18.26466351
Ge 8.06052109 2.56744075 7.14723214
Ge 8.87883774 2.62637284 17.86913494
Ge 6.30911512 6.45180332 7.43231563
Ge 6.75341959 6.15684632 17.98540062
Ge 4.43898883 9.63488966 7.08172872
Ge 4.49622960 10.01745904 18.47951534
Ge 2.28433727 13.66801094 6.96916419
Ge 2.59191425 13.37678959 17.92012375
Ge 12.95950432 2.74349516 7.27845843
Ge 12.69392441 2.11216208 17.84795138
Ge 10.80050688 6.34261724 7.18138747
Ge 10.67797739 5.90978736 17.59761861
Ge 8.53679849 10.54683948 7.39777936
Ge 8.82527016 10.06682637 18.16072939
Ge 6.55195365 13.87888843 7.05248378
Ge 6.60979643 13.49075795 18.30282138
Te 7.99931193 0.53413024 0.41426517
Te 8.46456271 7.77799100 0.15303897
Te 4.15751843 12.49930407 3.27492735
Te 0.07098997 2.52870552 7.26109292
Te 0.29688293 10.12540358 7.23539647
Te 2.44037963 0.76051895 9.19791769
Te 2.38022433 0.99438850 19.92999022
Te 0.35127282 5.02928916 9.20325814
Te -0.01378758 4.61175528 19.67993464
Te -2.03498192 8.63903601 9.27476921
Te -1.93872766 8.58469759 19.82635745
Te -3.91069340 12.29345949 9.38308642
Te -4.15005688 12.36284179 19.88118065
Te 6.48294991 0.97513394 8.87350131
Te 6.72690238 1.17209098 19.55045851
Te 4.50065425 4.97897219 9.13677524
Te 4.64459337 4.73145999 19.37342203
Te 2.51957163 8.67895189 8.98222725
Te 2.40696192 8.41497095 19.74444077
Te 0.15149095 12.54822830 9.11620125
Te 0.31544620 12.35465119 20.01236645
Te 10.65671581 1.35318250 8.93258507
Te 10.77864947 1.41505074 19.60575808
Te 8.42170949 5.53429842 9.37029047
Te 8.85102197 5.01412429 19.63734988
Te 6.67668803 8.98523398 9.01904403
Te 6.42750737 8.44802456 19.77337372
Te 4.12387415 12.57091245 8.90388267
Te 4.36158084 12.20211566 19.86288798
Te 14.88230104 1.47985829 9.06565342
Te 15.05094452 1.18092443 19.54197311
Te 12.80412935 5.15171377 8.85127341
Te 12.90111580 4.61982992 19.44892816
Te 10.60823964 9.13098621 8.94255981
Te 10.86215403 8.72012257 19.64951428
Te 8.60057444 12.85325948 9.16376539
Te 8.85772004 12.51348151 19.93277944
Te -0.25032030 2.39945127 2.01281103
Te 0.24918583 2.49112533 12.70724617
Te -2.33701178 6.30660054 1.87112484
Te -1.84845714 6.44721265 12.80476840
Te -4.22368233 10.11295480 1.77422356
Te -3.96738243 9.96292912 12.75409251
Te -6.62700281 13.59423757 2.27136468
Te -6.36077834 13.59847051 12.96918918
Te 4.21187946 2.54929567 1.76347829
Te 4.70990326 2.45782892 12.69702225
Te 1.88232162 6.42668548 1.90968396
Te 2.24543009 5.97752656 12.58919683
Te 0.20429936 10.09974657 2.23556279
Te 0.24761207 9.87294027 12.70211210
Te -2.47495708 13.77455266 2.08534672
Te -2.07850616 13.54354926 12.42171384
Te 8.52745793 3.19521710 2.37054636
Te 8.76083414 2.20145153 12.40694507
Te 6.21214150 6.38468530 1.84635977
Te 6.68601649 6.23394029 12.55079468
Te 4.32078821 9.71317124 1.79756430
Te 4.47796466 9.94253192 12.81371039
Te 1.79839122 14.04031006 1.89046476
Te 2.24566328 13.61358740 12.58050218
Te 12.61727266 2.45128478 2.01410132
Te 12.95392975 2.72400875 12.87743325
Te 10.55278656 6.66634228 1.95467570
Te 10.73205487 6.43379199 12.61295436
Te 8.44503316 10.33324553 1.74949864
Te 8.47596408 10.34705825 12.53013384
Te 6.50055549 13.74246271 1.70776873
Te 6.71748880 13.94747613 12.45400233
Te -8.47400876 14.86472008 5.88124392
Te 8.47266449 14.96892425 16.51989208
Te 14.74384245 3.75930593 5.35771284
Te -1.82124270 3.57041855 16.27187424
Te -4.16138992 7.60445739 5.64882209
Te 12.88024447 7.64528527 16.09127950
Te -6.36884804 11.24718368 5.69286847
Te 10.66816101 11.29438816 16.24442124
Te 4.01881686 0.07537042 5.03771282
Te -4.19021271 14.48495152 16.23712457
Te 2.08650977 3.91857064 5.29434804
Te 2.55457531 4.15184822 16.07702947
Te 0.16454551 7.44784020 5.56715216
Te 0.18234544 7.35505167 16.22517570
Te -1.99022963 11.20169795 5.30156248
Te -2.03760183 11.03374347 16.40330858
Te 8.31156778 0.11679921 5.60171083
Te 0.03742013 14.74217698 16.22574644
Te 5.97800875 3.69639491 5.21508209
Te 6.71509467 3.74097249 15.94533740
Te 4.74693837 7.55872068 5.26717238
Te 4.50265008 7.19423423 16.10309955
Te 2.11847436 11.36296996 5.62838203
Te 2.41407075 10.93036128 16.18441855
Te 13.07408631 0.23737741 5.47888115
Te 12.89979299 0.08210784 15.93554941
Te 10.52309430 3.86305373 5.48145645
Te 10.92385579 3.59673576 15.97714138
Te 8.84935204 7.97424622 5.49438936
Te 8.70011413 7.45757715 16.06076881
Te 6.41561005 11.44845172 5.61041449
Te 6.49598642 11.25657931 16.31100596
192
Time=70000.00000007 pbc="T T T" Lattice="17.47608099 0.07060085 -0.34584885 -8.73586664 15.01417211 0.71619744 0.76748794 -0.39839742 21.07642378" energy=-812.37198287 virial="-27.75018516 3.88041343 -16.67103680 3.88041343 -30.39025244 -12.59864986 -16.67103680 -12.59864986 -16.59476880" stress="-0.00291255 0.00069901 -0.00300308 0.00069901 -0.00338812 -0.00226949 -0.00300308 -0.00226949 -0.00090304" Properties=species:S:1:pos:R:3
Ge 17.77951876 -0.10324259 10.32984688
Ge 17.25011252 0.13311743 -0.19392748
Ge -1.54020046 3.53773409 11.14910996
Ge -2.11693307 4.10158598 0.34591933
Ge -3.84560605 7.25157162 11.04992050
Ge 13.12171259 7.38482251 0.27207133
Ge 11.21450006 10.57106685 10.85685528
Ge -6.34995868 11.00585578 1.16373485
Ge 4.94866613 0.31943715 10.35178227
Ge 4.15785532 0.09115085 0.50794293
Ge 2.66897275 3.55216354 10.57288826
Ge 2.08087498 4.09969678 0.44361685
Ge 0.69584857 7.38841818 10.77856466
Ge 0.11863314 7.83273269 0.46649596
Ge -1.68096371 10.86492573 10.89879795
Ge -1.68140819 11.49179929 0.91559969
Ge 0.79069008 14.72829743 10.95672309
Ge 6.80253159 3.43592057 10.22341073
Ge 6.69680601 3.96350470 0.44601681
Ge 5.17226431 7.37263218 10.64697515
Ge 4.76320771 7.60526053 0.26479134
Ge 2.92164924 11.28352687 11.05352837
Ge 2.38711103 11.61382675 0.42272348
Ge 4.74873817 14.72299978 10.70127467
Ge 4.59291461 15.05184686 0.67674421
Ge 11.41605521 3.45645474 10.51596406
Ge 11.31471661 3.80069863 0.34969523
Ge 9.09243326 7.05205995 10.94152113
Ge 7.13405523 11.05456016 10.67128858
Ge 7.02898084 11.08621798 0.31564408
Ge 2.27246080 1.34067252 3.88028145
Ge 2.67283025 1.06966161 14.19905557
Ge 0.04463899 5.10412602 4.10005408
Ge 0.70885399 5.15319510 14.47959218
Ge -1.66139096 9.03499469 4.31415546
Ge -1.45767697 8.37695733 14.41565048
Ge -4.08029910 12.16110586 4.32870781
Ge -3.79026248 12.58753516 14.62777552
Ge 6.73715809 1.10171745 3.33520478
Ge 6.96436838 0.27905766 14.28651448
Ge 4.30345897 5.21132785 3.72982153
Ge 4.80934394 4.77367857 13.86872664
Ge 2.54716275 9.01012689 3.88601002
Ge 2.83524005 8.50372175 14.71037556
Ge 0.22176630 12.51517622 4.37662964
Ge 0.70791315 12.43129813 14.64865744
Ge 10.87343829 1.24079274 3.63455693
Ge 11.35834506 0.85665275 14.27185001
Ge 9.05239973 4.86466484 3.70243633
Ge 9.50335721 4.50290625 14.12797867
Ge 6.81571980 8.49200677 3.89023666
Ge 7.13968922 8.52895372 14.49388122
Ge 4.90590766 12.11258456 14.41265800
Ge 15.21748495 1.55049115 3.59503486
Ge 15.90399569 1.29467274 14.01060020
Ge 13.43810213 4.91904556 3.61717297
Ge 13.57173205 4.67949459 13.97192001
Ge 11.22064263 8.83485953 3.71852108
Ge 11.54823437 8.64427212 14.24247692
Ge 8.98409872 12.08856741 3.90933948
Ge 9.28562265 12.22215415 14.52737052
Ge 0.59185731 2.44684037 17.74800859
Ge -2.13897124 6.13201359 7.31224228
Ge -1.68883535 5.85434240 17.87394138
Ge -4.39586178 9.90665526 7.77468320
Ge -3.77606916 9.93116968 18.51803739
Ge -6.16776193 13.58910793 7.81748252
Ge -6.00854500 13.51675391 18.77558339
Ge 4.53610930 2.44078409 7.03391469
Ge 4.55606505 2.13775371 18.04400564
Ge 2.70597857 6.51419820 7.33729004
Ge 3.05611133 6.58477943 18.04583279
Ge 0.29963492 9.67454391 18.02340012
Ge -2.12043525 13.59298836 7.73503428
Ge -1.54269755 13.55754532 18.75695190
Ge 8.70424636 2.62022545 6.68468905
Ge 8.83043068 2.19621474 17.73631798
Ge 6.97761556 6.07753948 6.89924376
Ge 7.37692224 5.28154067 17.75810705
Ge 4.96526725 10.00029117 7.54330967
Ge 5.07293020 9.67807291 17.90874394
Ge 2.22995390 13.95073914 7.92622813
Ge 2.82374010 13.18575654 18.43989148
Ge 13.57223840 2.35469740 7.07677934
Ge 13.64633745 2.52406506 17.89907385
Ge 11.55286162 6.21527659 6.94833403
Ge 11.46036161 6.27721776 17.62370304
Ge 8.67307533 9.93184488 7.03719044
Ge 9.49755649 9.77862343 18.21771253
Ge 6.95313599 13.91737571 7.81309246
Ge 6.80538109 13.38658748 18.00029365
Te 8.99260183 0.13213327 0.21570249
Te 9.12793193 7.52498664 0.27219302
Te 4.44695291 12.67761811 4.38795728
Te 0.20306870 2.60947955 7.41961341
Te 0.42173735 10.12135794 7.74256071
Te 2.64442986 0.94732772 9.14147529
Te 2.50198496 1.04386832 19.31274870
Te 0.75372098 4.82405105 9.11113710
Te 0.82885178 4.88273982 19.61038828
Te -2.09572620 8.47314385 9.38244478
Te -1.59025528 8.53948885 19.81395666
Te -4.13715871 12.17189093 9.28037302
Te -3.74910323 12.48608106 20.26513055
Te 7.25317402 1.01821223 8.71087560
Te 6.94193916 1.02415598 19.46163387
Te 4.75668172 4.67962872 9.18219351
Te 5.04752604 4.81569346 19.55232955
Te 2.91658648 8.70114935 9.21170949
Te 2.72254254 8.75908211 19.67812614
Te 0.40049903 12.48417185 9.45305527
Te 0.57602304 12.02255254 19.75800372
Te 11.45088691 1.32324019 8.67000665
Te 11.83247573 0.80831065 19.23772394
Te 9.04515252 4.98153448 8.80605122
Te 9.45967635 4.31958081 19.69480864
Te 7.02276217 8.77077256 9.18637483
Te 7.00999310 8.44680333 19.51985286
Te 4.31730831 12.35741612 9.15813799
Te 5.11713392 11.98439061 19.68403843
Te 15.42568344 1.01744607 8.71564600
Te 16.13212828 0.71568721 18.94279013
Te 13.49902727 5.09199359 9.01341105
Te 13.78252376 4.81177162 19.34602484
Te 11.16375540 8.39744017 8.88509239
Te 11.71750326 8.45031631 19.62188247
Te 9.23353535 12.28119754 9.20496978
Te 9.06491548 12.30047727 19.65412471
Te -0.17014745 2.45839393 1.98756475
Te 0.48964363 2.14969438 12.43641711
Te -2.21255209 6.16183561 2.09482871
Te -1.88431261 5.92452869 12.96426482
Te -4.24271005 9.91770129 2.57534911
Te -3.93720925 9.87052364 12.85686984
Te -6.64522044 13.71696045 2.43246377
Te -6.19145661 13.22183255 13.11836855
Te 4.36245499 2.43294424 1.92580107
Te 4.98623176 2.21407684 12.54734146
Te 2.26190694 6.21284706 1.84621372
Te 2.58249586 6.12901402 12.35628349
Te 0.03347782 10.16397744 2.39711602
Te 0.38921400 9.67805650 12.75311778
Te -2.19560984 13.95018083 2.48415551
Te -1.93600354 13.51497867 12.71026912
Te 8.70044919 2.70919555 1.88284486
Te 9.49776306 2.19739569 12.18977357
Te 6.56663118 6.14011393 2.13490630
Te 7.01698918 6.15534940 12.61829833
Te 4.18207573 9.93344907 1.84576871
Te 4.69756464 9.76841407 12.66385079
Te 2.18971422 13.77181136 2.51012226
Te 2.41645465 13.71833450 12.99001112
Te 13.26986992 2.41526680 1.70311725
Te 13.58274508 2.34443026 12.14078835
Te 11.21250403 6.27850084 2.13931237
Te 11.35859999 6.06379858 12.67215789
Te 8.97122218 9.68370650 2.28725669
Te 9.09397296 9.56903035 12.39993295
Te 6.43915385 13.69107538 2.00110690
Te 6.60752052 13.76188369 12.57996502
Te 0.20212307 0.02296910 5.50056120
Te 9.31000066 14.68720577 16.03505646
Te -1.98966340 3.81697120 5.55957349
Te 15.69671255 3.41107686 15.83509716
Te -3.99031592 7.48045963 5.82531969
Te 13.54036449 7.39692958 16.16833499
Te 11.03743232 11.23739519 5.68435133
Te 11.30897686 11.22374191 16.10799657
Te 4.41674885 -0.03935297 5.43439739
Te 4.76181831 -0.17888606 16.02155436
Te 2.62454757 3.64704128 5.65885976
Te 2.69159177 3.47256556 15.70780559
Te 0.36950752 7.21173764 5.96170777
Te 0.74886817 7.13407926 16.34464967
Te -2.04515649 11.36650010 5.86205369
Te -1.74999011 10.82754840 16.24670990
Te 9.07644749 -0.02522242 5.24869780
Te 0.48310229 14.43638789 16.59412652
Te 6.54367540 3.72113203 5.00881627
Te 7.15787664 3.50914052 15.93053752
Te 4.41414388 7.61737485 5.61465751
Te 4.92049138 7.12934673 16.10705070
Te 2.42427375 10.91254071 5.86727082
Te 2.59552335 10.93010025 16.11152642
Te 13.12717616 0.04749171 5.45723996
Te 4.81612459 14.58204579 16.26487305
Te 11.20317523 3.64488071 5.48224728
Te 11.53947293 3.33849504 16.08710471
Te 9.17739347 7.45549121 5.45715645
Te 9.19716213 7.08664528 15.93216125
Te 6.59878657 11.13175797 5.69628260
Te 7.20395951 10.77437014 16.11569140
192
Time=80000.00000008 pbc="T T T" Lattice="17.46450354 0.20178710 -0.84482485 -8.75467108 14.88064736 0.94522519 1.01221141 -0.47896325 21.02377857" energy=-810.33408159 virial="-15.76585588 -2.34091285 1.42429534 -2.34091285 -14.38142506 -2.75730664 1.42429534 -2.75730664 -5.13697302" stress="-0.00075839 -0.00042430 0.00025816 -0.00042430 -0.00050746 -0.00049977 0.00025816 -0.00049977 0.00116814" Properties=species:S:1:pos:R:3
Ge 0.37664770 0.09436495 10.89705477
Ge 8.35947066 14.99734221 0.48079158
Ge 15.70640962 3.71006537 10.10154452
Ge 16.05150833 3.44824607 20.29233412
Ge -3.83401152 7.21833822 10.76766930
Ge -4.21551372 7.57916564 1.05512784
Ge -5.91914842 11.29431154 11.22258780
Ge 11.03622913 10.93479102 0.49949773
Ge 5.16779148 -0.10965384 10.61839599
Ge -5.11692952 14.85612542 0.81112398
Ge 2.64295408 3.48327627 10.84890941
Ge 2.51914174 3.53367872 0.33019212
Ge 0.12079236 7.08092723 11.02977711
Ge 0.73779701 6.80926806 21.05233832
Ge -2.44587229 11.03964013 10.99626523
Ge -2.44713891 11.25500524 1.00755893
Ge 9.14370727 -0.05662840 10.30469041
Ge 6.79785486 3.64466321 10.71302062
Ge 7.60603127 3.77334118 20.66777185
Ge 4.55461703 7.57737705 10.70688825
Ge 4.67246190 7.65487211 0.20107262
Ge 2.41430153 10.96193702 11.22791104
Ge 3.05813330 10.60427433 21.23224878
Ge 4.94272520 14.57428950 10.70915334
Ge 5.22649351 14.32615319 21.22816542
Ge 11.16843017 3.67566865 10.39104387
Ge 11.63774656 3.11866226 20.50747957
Ge 9.09549924 7.04943222 10.14488375
Ge 7.18925835 10.92100875 10.66028347
Ge 6.45663095 11.52475321 0.77707955
Ge 2.38893277 1.49230374 3.74729857
Ge 2.13232736 0.82054227 14.22892246
Ge -0.10777610 4.57571385 4.20351286
Ge 0.94102808 4.71440595 14.70198088
Ge -1.78355116 8.75700899 4.22460291
Ge -1.54812579 9.06838630 14.43739385
Ge -4.13739895 12.58330323 4.76388122
Ge -3.64333720 12.58760899 14.98519288
Ge 6.64587571 1.25555019 3.36214638
Ge 7.29410435 0.68769905 14.39260515
Ge 4.42055392 5.18266368 3.70070213
Ge 4.96827993 4.51545551 14.05948065
Ge 1.98093644 8.45613988 3.51670517
Ge 3.19050235 8.29036186 14.41228906
Ge -0.03213307 12.64574327 4.22952834
Ge 1.16413279 11.95570660 14.63881911
Ge 11.58560576 1.19194603 3.12048323
Ge 11.73432837 0.92323910 13.92621331
Ge 8.84347195 4.63597153 2.79980318
Ge 9.60616038 4.72968585 13.96956340
Ge 6.78156785 8.49353230 4.07591113
Ge 7.62521313 8.56659543 14.09325118
Ge 5.22512557 12.79100521 14.55594827
Ge 15.46376697 1.45011985 2.92559647
Ge 15.56325989 0.99397768 13.21642885
Ge 13.55573031 4.71966028 2.95455481
Ge 13.73153582 4.69663878 13.80303323
Ge 10.72001299 8.48831433 3.54222702
Ge 11.81534547 8.33077180 13.97798547
Ge 8.98336409 12.14498568 3.82409922
Ge 9.68606030 11.95717982 14.08527773
Ge 0.62445584 1.94104670 18.01820027
Ge -1.83415511 6.15640997 7.37682512
Ge -1.09976837 5.94353934 18.07687807
Ge -3.86457156 9.92047663 7.44665254
Ge -3.63456703 9.70743295 18.37188577
Ge -6.44858901 13.65271878 7.69182659
Ge -5.93937359 13.57843453 18.42821375
Ge 4.62240304 2.99270226 6.73617323
Ge 5.46988790 2.24942386 17.63141606
Ge 2.44717340 6.14807607 7.55523007
Ge 3.21740572 5.90044890 17.39430708
Ge 0.61411470 9.75040285 18.11514376
Ge -1.74626954 13.53048505 7.39941388
Ge -1.83818979 13.26177231 18.57765441
Ge 9.33853577 2.10126776 6.41970610
Ge 9.42440772 2.14235019 17.70371155
Ge 7.04624322 5.77917081 6.78543562
Ge 7.38155366 5.62378280 17.35856006
Ge 4.48238977 10.04825751 7.17766706
Ge 5.47737429 9.60613765 18.07571607
Ge 2.66910770 13.80273287 7.82915839
Ge 3.04658632 13.28196575 18.29097846
Ge 13.05791406 2.61340435 6.59008246
Ge 14.02203272 2.44302199 17.33057186
Ge 11.42204287 6.47748918 7.14123977
Ge 11.86480108 5.89147417 17.18763538
Ge 8.87654168 9.71523371 6.76951907
Ge 9.64525905 10.04264402 17.68992869
Ge 7.03981816 14.01985484 7.52028384
Ge 7.59386269 13.05357274 18.34962845
Te -0.13277904 14.88980299 0.61795142
Te 8.98700749 7.56720338 0.00398148
Te 4.40765502 12.68978164 3.94966354
Te 0.24320070 2.62943250 7.28792064
Te 0.33722677 9.86768747 7.29149002
Te 2.47284262 1.05302091 8.80334994
Te 2.92657098 0.93115490 19.10346762
Te 0.28298201 4.81895239 9.24421694
Te 0.79088256 4.49219029 19.56829456
Te -1.90643040 8.47943751 9.21280927
Te -1.33263600 8.36269556 19.86626950
Te -4.08250433 12.31972426 9.29238926
Te -3.55216147 11.96480602 20.27348819
Te 6.73977041 1.03741161 8.83801601
Te 7.31635324 0.99677851 19.33060817
Te 4.58446310 5.02629316 9.05985374
Te 5.25147967 4.60865723 19.04299042
Te 2.57363384 8.83231738 8.91054388
Te 2.83894387 8.06064473 19.74460601
Te 0.68639844 12.59169627 9.21968092
Te 0.90742434 12.14527304 19.86301619
Te 11.38838447 1.26146946 8.27443401
Te 12.18796296 0.98600874 18.76349301
Te 9.26342459 4.68806473 8.54536102
Te 9.62050641 4.50132773 19.22604595
Te 7.21739414 8.06291563 8.55446743
Te 7.51127329 8.19657849 19.32283000
Te 4.81737508 12.35896411 9.20297729
Te 5.53260811 12.08354489 19.66733985
Te 15.58257660 1.25254351 8.15004121
Te 16.26153580 0.61321521 18.82719111
Te 13.29414438 4.68458541 8.51363195
Te 14.10519982 4.81769055 19.10993346
Te 11.26924061 8.88388498 8.79747746
Te 12.08658212 8.45342097 19.20836597
Te 9.18270854 12.41334643 8.81192893
Te 9.87570996 11.82792833 19.69733590
Te 0.16944050 2.71570178 2.12581335
Te 0.39753842 2.52565988 12.47614662
Te -2.18235973 6.22167797 2.34633488
Te -1.77020225 5.93394415 12.87245698
Te -4.33029703 9.78391562 2.85103334
Te -3.89227183 9.11804045 12.66599974
Te -6.45720520 13.39880840 2.84409251
Te -5.97656900 13.38014528 13.26614196
Te 4.47607889 2.46967203 1.85706794
Te 4.88417829 2.38429954 12.20167258
Te 2.05518221 6.17639393 1.73885557
Te 2.75396855 6.24135868 12.52915650
Te 0.27386093 9.96335907 2.27116596
Te 0.56236766 9.70174804 12.88975513
Te -2.07890408 13.60431087 2.64447497
Te -1.74963732 13.26141617 12.86486355
Te 9.08837375 2.33032439 1.38039672
Te 9.38412157 2.56269767 11.99140116
Te 6.68513568 6.15708208 1.81325969
Te 7.35180181 5.97321360 12.31688653
Te 4.61251338 9.81186226 1.92098100
Te 4.71463152 9.93347223 12.79612668
Te 2.29255498 13.49190959 2.17702411
Te 2.62995953 13.61940421 12.77259272
Te 13.27148224 2.46373387 1.26865612
Te 13.66028104 2.21637568 11.86480867
Te 11.19644676 6.43015739 1.66523458
Te 11.65877847 5.95380831 12.10067796
Te 8.78431320 9.98821198 2.00582033
Te 9.46904379 9.71869791 12.31596216
Te 6.72488782 13.97622754 2.31000403
Te 7.12286090 13.33792234 12.32351287
Te -8.35452002 14.67475847 6.17385551
Te 9.16896947 14.64532771 15.92107884
Te 15.30938361 3.89705621 4.85922119
Te -1.30497411 3.22429216 15.69909214
Te 13.28625069 7.44707201 5.25866327
Te -3.49589966 7.09923726 16.48440005
Te -6.12343618 11.42169248 6.10363276
Te 11.52005485 11.03061993 15.90179215
Te 4.58858541 0.16824677 5.30759161
Te 4.68684871 -0.21473287 15.50523804
Te 2.52594117 3.89051535 5.40910677
Te 3.27678667 3.27631461 15.71304762
Te 0.16002082 7.15223233 5.63540974
Te 0.53425272 7.29854782 16.03996216
Te -1.87527049 11.09628782 5.78777060
Te -1.14424170 11.36296353 16.54930141
Te 9.25253671 0.04969077 4.96691075
Te 1.03185375 14.47632830 16.18932995
Te 6.57431036 3.36942859 5.14498516
Te 7.53357135 3.28399825 15.60666574
Te 4.58500015 7.30332616 5.64604086
Te 5.22986320 7.27938686 15.92188361
Te 2.40499655 11.36241765 5.69906391
Te 3.04240546 10.98910679 16.41115403
Te 13.54969188 0.25449180 4.99108605
Te 14.17377589 -0.15201556 15.49828343
Te 11.12238839 3.65244568 4.84782046
Te 11.67023445 3.41022963 15.55095356
Te 9.05917615 7.26905599 5.26392550
Te 9.62828518 7.37234821 15.70561191
Te 6.94791185 11.16102329 5.38853895
Te 7.41602857 10.86672651 15.99871717
192
Time=90000.00000003 pbc="T T T" Lattice="17.24280894 0.37465982 -0.91390407 -8.84882860 14.81428038 0.86368233 1.09742536 -0.27613020 21.29526342" energy=-811.16030282 virial="-13.58946937 -0.78169982 1.57449259 -0.78169982 -13.23201641 -4.58232862 1.57449259 -4.58232862 -12.53738602" stress="-0.00036318 -0.00014140 0.00028481 -0.00014140 -0.00029852 -0.00082890 0.00028481 -0.00082890 -0.00017287" Properties=species:S:1:pos:R:3
Ge 8.78980415 14.76125843 10.35779004
Ge 9.34629170 14.88737322 21.17088696
Ge -1.40898510 3.51994474 10.78535362
Ge 16.19876570 3.55790415 20.54213916
Ge -3.88240137 7.39405753 10.87647319
Ge -4.18869453 7.28311533 0.50612162
Ge 10.94625680 11.44277739 10.81862243
Ge 11.44332294 11.02112848 20.90787047
Ge 4.81404921 0.38832117 10.43241376
Ge 5.23262285 -0.08495984 20.93562989
Ge 3.06706554 3.92067077 10.33652793
Ge 2.33419694 3.85945280 0.06501484
Ge 0.05067596 7.19388586 10.59611898
Ge 0.03570002 7.84482498 0.56898853
Ge -1.84571518 11.34617793 11.21165881
Ge -2.29160382 11.08599280 0.51696401
Ge 0.34893437 14.58612429 11.41367721
Ge 7.26263341 3.76136299 10.80514185
Ge 7.76709281 3.79554311 20.95435160
Ge 4.84270510 7.69507856 10.98206954
Ge 4.14852184 7.26620477 0.01297554
Ge 2.83413434 11.07739964 10.77666793
Ge 2.27735283 11.54508624 0.55050136
Ge 13.22285469 0.42882600 10.32391030
Ge 4.17973901 15.01812552 0.30108667
Ge 11.40009341 4.09118747 10.21380583
Ge 10.63997776 3.51178806 -0.23519996
Ge 9.17907247 7.88490637 10.51622205
Ge 6.92086115 11.49595716 10.45749944
Ge 6.48163668 11.33963006 0.43438799
Ge 2.43946086 1.03441037 3.70782729
Ge 2.97218561 1.38843321 14.47086932
Ge -0.26508393 4.72534141 4.02282420
Ge 0.69704003 4.45449520 14.32374445
Ge -1.93748344 8.22504729 4.07964221
Ge -1.16326151 8.66512263 14.96426327
Ge -4.24286278 12.19123228 4.13094582
Ge -3.99802727 12.21252258 14.90099054
Ge 6.55763953 1.13695136 3.44408816
Ge 7.28520447 1.29548667 14.02671352
Ge 4.25931223 4.63077768 3.17431485
Ge 4.67931721 5.06953587 14.30644092
Ge 2.65463291 8.34064432 3.40131415
Ge 2.67170965 8.77331824 14.11758114
Ge -0.34062713 12.69958405 3.80530312
Ge 0.59363380 12.66618735 15.02507010
Ge 10.91310954 1.42994580 2.57333819
Ge 11.60946629 1.09267221 13.74672810
Ge 8.85762334 4.86116528 3.00872324
Ge 9.23742440 5.04280259 13.80107108
Ge 6.48623308 9.18026903 4.06308120
Ge 6.68691655 8.48379832 14.41338825
Ge 4.89319474 12.32086319 14.58773168
Ge 15.65810958 1.32502192 2.99554710
Ge 15.65174548 1.00254272 13.56784674
Ge 12.83624687 5.25605003 3.41314621
Ge 13.70371579 5.11797857 13.66429015
Ge 10.70891695 9.06816069 3.37667240
Ge 11.37077104 8.99610048 14.18960879
Ge 8.81083426 12.43254168 3.85250804
Ge 9.08631395 12.59654464 14.25230539
Ge 0.67770018 2.35954732 18.11093902
Ge -2.13702304 6.25979519 7.51643041
Ge -1.33299318 6.16318381 17.84248645
Ge -3.84714639 10.19865978 8.07340515
Ge -3.40686514 9.74229644 18.59505415
Ge -6.13419854 13.69190063 8.03816204
Ge -5.42605746 13.54287219 18.35171654
Ge 4.85119166 2.26024525 7.02956159
Ge 5.21221947 2.32595846 17.54133398
Ge 2.29500020 6.10968006 7.27400181
Ge 2.76029314 5.77228759 18.24654894
Ge 0.80958817 9.77847427 18.19156054
Ge -1.37285742 13.72232932 7.56900793
Ge -1.56047289 13.64101122 17.98484580
Ge 9.13398740 2.29630956 6.62017696
Ge 9.36688342 2.64191800 17.68320696
Ge 6.62989976 5.99942611 6.61287481
Ge 6.97872187 6.24708741 17.74338089
Ge 4.38476320 9.79942506 7.36971933
Ge 4.88568189 10.08795541 18.56477150
Ge 2.46815378 13.65153945 7.46164073
Ge 2.90365970 13.34080179 18.37725913
Ge 13.00122474 2.60569920 6.43776032
Ge 13.77187525 2.73584572 17.45199707
Ge 10.83018014 6.39468540 7.05569917
Ge 11.41338649 5.85991083 16.87852101
Ge 8.57343393 10.04008362 6.77602909
Ge 9.18264769 9.82793874 17.72406588
Ge 6.55457399 13.79924038 7.35631219
Ge 7.11492313 13.67034517 17.66439761
Te -0.32361431 14.98596677 0.49140154
Te 8.50292468 7.77632023 -0.04961362
Te 4.11426861 12.58650510 3.63326140
Te 0.41739830 2.31319197 7.18465024
Te 0.41707326 9.87551893 7.51713084
Te 2.60954542 1.10310515 8.94477660
Te 3.42225697 1.44847619 19.40146323
Te 0.39076611 4.90511197 8.98242241
Te 0.62103466 4.83855777 19.88008598
Te -1.76216294 8.76516538 9.38659353
Te -1.13923777 8.40747122 20.29871182
Te -3.92143014 12.54385184 9.61827962
Te -3.47011943 11.77770623 20.36349946
Te 7.11835339 1.03240078 8.71524464
Te 7.55302682 0.90555176 19.03381468
Te 5.13103062 4.91534414 8.95791607
Te 5.28338152 4.74549809 19.71908393
Te 2.66217231 8.62601568 9.29542650
Te 3.06330603 8.25107622 19.90700658
Te 0.45152821 12.48884690 9.46858630
Te 0.94515183 12.20587594 20.32368438
Te 11.08861733 1.41053326 8.74721589
Te 11.78458481 1.29639870 18.96602978
Te 9.10377452 5.23620738 9.09876780
Te 9.47867673 5.13566485 19.46481784
Te 7.00580128 9.21656278 8.82202208
Te 7.33210271 8.66116010 19.66515900
Te 4.76616036 12.56457234 9.07354165
Te 4.90233101 12.47475404 19.89985610
Te 15.38030508 1.67449103 8.38620834
Te 16.00778439 1.10964818 19.02397488
Te 13.24874000 5.38670643 8.41847584
Te 13.45695337 4.78618122 19.52394779
Te 11.03055286 9.08147485 8.96756761
Te 12.01319111 8.52055459 19.41458018
Te 8.93542642 12.72148196 8.65452935
Te 9.68178300 12.76588942 19.44026799
Te -0.13980233 2.58610399 2.14555033
Te 0.61486309 2.24209861 12.77607885
Te -2.05317097 6.05535017 2.35619233
Te -1.30858303 6.17424822 12.90286649
Te -4.72752053 10.12595763 2.23002380
Te -4.15559024 9.89358791 13.19169461
Te -6.63646345 13.74760090 2.83128934
Te -6.01872223 13.69087509 13.54549823
Te 4.17519076 2.11077079 1.51525766
Te 4.92595041 2.37266670 12.59918661
Te 2.14898423 6.20070539 1.76670346
Te 2.72361787 5.97669949 12.71291931
Te 0.16977052 9.91579038 2.35311676
Te 0.44412155 9.70580177 12.98185752
Te -2.40347216 13.79801324 2.26092815
Te -1.87369451 13.53336894 13.20437801
Te 8.75322427 2.60900251 1.35667478
Te 9.20494958 2.36932950 12.23868957
Te 6.52577655 6.20025246 1.71157042
Te 7.03326758 6.27543809 12.39996662
Te 4.31389681 9.70626205 1.58529113
Te 5.05024056 10.10114692 12.82924919
Te 1.84978405 13.95667263 1.97339469
Te 2.51366997 13.43669698 12.83976272
Te 12.97926432 2.62208007 1.42008119
Te 13.49373968 2.31155236 12.20033257
Te 10.70355584 6.10531007 1.44034623
Te 11.36608913 6.29247840 12.07597999
Te 8.46506682 10.19558822 1.76193637
Te 9.14739067 10.02536969 12.67134999
Te 6.32260528 14.03589342 1.78759429
Te 6.83264330 13.76250793 12.55796259
Te -8.36184780 14.63340052 6.19969148
Te 1.01829084 -0.08517031 16.35921405
Te 14.92485443 4.09620351 4.87394483
Te 15.76528767 3.79369154 15.44954661
Te -4.06535228 7.34622957 5.84523345
Te 13.39988386 7.12338880 15.42202907
Te 11.00075115 11.18252664 5.06767660
Te -5.68904020 10.80803842 16.72132453
Te 4.51429979 0.10688266 5.09223173
Te 5.20928675 -0.07949970 15.76498882
Te 2.43623423 4.12777001 5.41159708
Te 2.98165200 3.65282566 16.05020575
Te 0.32528944 7.49295466 5.79547324
Te 0.83829590 7.28991064 16.45922583
Te -1.99701463 11.21814957 5.70390301
Te -1.52178413 10.82517283 16.77408456
Te 9.08557540 0.17773286 4.98245465
Te 9.39032371 0.26464220 15.64827892
Te 6.73409033 3.37259894 5.45911060
Te 7.15790151 3.84558433 16.25257194
Te 4.45238307 7.54250522 5.61468218
Te 4.92049650 7.22986839 16.00842867