192
Time=60000.00000005 pbc="T T T" Lattice="17.30970194 -0.58062808 0.52908296 -8.27409424 15.18099639 -0.29872702 -0.67396058 0.10595537 21.32860551" energy=-809.45723888 virial="-20.30374293 7.84006592 -2.11705401 7.84006592 -0.10508326 7.79709989 -2.11705401 7.79709989 -13.62707385" stress="-0.00128284 0.00142307 -0.00038427 0.00142307 0.00238347 0.00141527 -0.00038427 0.00141527 -0.00007094" Properties=species:S:1:pos:R:3
Ge 8.62381656 14.39930399 11.20075223
Ge 16.81717689 -0.24803484 1.03559230
Ge 14.87036395 2.82883109 11.23265068
Ge -2.82343312 4.07372766 21.01890328
Ge -4.05772423 7.39166271 10.75334776
Ge -4.08484069 7.61831709 0.28240293
Ge -6.31361248 11.48734850 10.40970168
Ge -6.30333599 11.68011611 -0.03098798
Ge -4.64680146 15.00422109 10.55319678
Ge -3.87131175 14.84050198 -0.02764973
Ge 2.17407976 3.32895651 10.78188246
Ge 2.22096605 4.00516906 0.08813718
Ge -0.03363063 7.54467759 10.82325054
Ge 0.14510292 7.55990850 0.53727805
Ge -2.68807981 11.27323171 10.55824344
Ge -1.74428790 11.41855175 0.67841263
Ge 8.29905562 -0.22661428 11.27413719
Ge 6.20328161 3.33116253 11.43796597
Ge 6.83019058 3.24067536 0.51342768
Ge 4.56762280 7.74672618 10.85539779
Ge 4.48119676 7.36575690 0.84368615
Ge 2.23015981 11.58778331 10.95526084
Ge 2.42813793 10.86338537 0.16041308
Ge 12.61522344 -0.17935426 11.19997644
Ge 12.50283241 -0.01330554 21.68467423
Ge 10.60735053 3.52467697 11.15127789
Ge 10.70176887 3.34861362 0.63766871
Ge 8.85792241 6.87811893 11.00260308
Ge 6.18719447 11.27528248 10.97406971
Ge 6.12278956 11.14292402 21.40717519
Ge 2.29419933 1.44347705 4.10492556
Ge 1.81674134 0.91155618 14.32494122
Ge -0.03777333 5.19075894 3.96176689
Ge 0.10262339 5.19873686 14.46377583
Ge -1.95116050 8.57260789 4.12320161
Ge -2.52268524 8.57159468 14.37220654
Ge -4.03374337 12.69223258 3.31905506
Ge -4.80715393 12.40396878 14.12499376
Ge 6.29269739 1.00007517 4.04339610
Ge 6.41624417 0.83618071 14.62081820
Ge 4.24481844 4.58988209 3.82979205
Ge 4.04001993 4.69902173 14.12969501
Ge 2.53131271 8.88868395 3.79828412
Ge 1.93200771 8.67954683 14.40944200
Ge 0.08395870 12.19124785 3.92621123
Ge 0.08805860 12.42541251 14.44830095
Ge 10.80140533 0.41268574 4.05610685
Ge 10.54032090 1.00872783 14.74353916
Ge 8.85262051 4.52283595 4.05870150
Ge 8.43914344 4.97458021 14.73810150
Ge 6.34087458 8.26782040 3.72241483
Ge 6.06043362 8.76265556 14.33758272
Ge 3.95081340 12.35163068 15.22782979
Ge 14.93984695 0.56600475 3.73134901
Ge 15.12814214 0.65938633 14.69126056
Ge 12.87054637 4.56163549 3.87470384
Ge 12.74218706 4.74581585 15.07908682
Ge 10.40073825 8.07233266 3.87552904
Ge 10.43459562 8.22379892 14.63423455
Ge 8.64101957 11.87403247 3.92228182
Ge 8.47243939 11.97881820 14.86929587
Ge -0.25152352 2.79153674 17.87379748
Ge -2.14464014 5.87994224 6.98188657
Ge -2.66876512 6.51854848 18.13595676
Ge -4.36052190 9.79324549 6.81523506
Ge -4.82105126 10.18699980 18.30727556
Ge -6.51348142 14.22220228 6.53787419
Ge -6.60683969 13.85273371 17.87105585
Ge 4.00685318 2.41102416 7.32124659
Ge 4.17715989 2.44159627 18.45816768
Ge 2.51237877 6.22824695 7.58938415
Ge 1.79014638 6.34485621 17.87414426
Ge -0.30581151 10.01824582 18.02772473
Ge -1.87130291 14.00063778 7.17283524
Ge -2.44513589 13.58840805 17.72502818
Ge 8.42808513 2.14389584 7.61091171
Ge 7.96044755 2.52523427 18.06368133
Ge 6.16388661 5.85506327 7.62147822
Ge 5.94250043 6.08852522 17.94989173
Ge 4.61977592 9.67790712 7.59681377
Ge 3.94645824 9.39789339 18.08150345
Ge 2.23187599 13.97099967 7.27850438
Ge 1.82757062 13.22611086 18.03736910
Ge 12.51341240 2.12117623 7.41498327
Ge 12.48647927 2.50014621 18.61368211
Ge 10.29334880 6.11517230 7.20758443
Ge 9.96401052 5.94259425 17.94750111
Ge 9.07958055 9.70354630 7.19970570
Ge 8.23553600 9.36629247 18.26861950
Ge 7.11507604 13.68238099 7.45930204
Ge 6.20665355 13.49981915 18.08978933
Te 0.52774589 14.52594085 0.22129799
Te 8.61870600 6.92586397 0.30032014
Te 4.64128643 12.20804971 4.19495884
Te -0.31063997 2.73406246 7.30081809
Te -0.03422416 9.80148369 7.03868177
Te 2.03185124 0.98067360 8.98967342
Te 2.03546147 1.40231477 19.69873984
Te -0.15919525 5.21069215 9.13826732
Te -0.23256621 5.30731459 19.30283721
Te -2.14738590 8.49392449 9.02122672
Te -3.09400778 8.91611657 19.58975583
Te -4.45807362 12.95036434 8.53935025
Te -4.33817236 12.64652646 19.53185853
Te 6.10248214 1.02844445 9.54360051
Te 6.02958383 1.11135275 19.88944452
Te 4.30959265 4.82037585 9.14889094
Te 3.90520770 4.99914424 19.85974651
Te 2.34681796 8.47599520 9.36686393
Te 1.95581005 8.64849782 20.00991131
Te -0.12819574 12.66345516 9.22503965
Te -0.28677641 12.42151577 19.66541810
Te 10.50186932 1.18990149 9.44020865
Te 10.33808833 1.20348915 20.17383875
Te 8.42920542 4.73920491 9.29915368
Te 7.95381154 4.78433349 19.63159480
Te 6.61226064 8.40974117 9.01700871
Te 5.87794396 8.53591235 19.91834932
Te 4.39822977 12.56974787 9.43527573
Te 3.92845858 12.07840842 19.59762521
Te 14.74067360 0.53379178 9.55225071
Te 14.79757135 1.12490322 19.97669401
Te 12.91862887 4.26978184 9.23292069
Te 12.48070697 4.79104346 20.02740184
Te 10.75062738 8.39874275 9.28238489
Te 10.27255245 8.53422558 19.87877464
Te 8.52131433 11.66958707 9.60037229
Te 8.56143038 12.45666617 19.97555033
Te 0.02689201 2.61124683 1.88800920
Te -0.29912787 2.80121455 12.49050572
Te -1.95840011 6.33948498 1.72145989
Te -2.31611247 6.08629343 12.69537395
Te -4.14479148 10.03961612 1.53963173
Te -4.90102775 10.07795697 12.51885662
Te -6.29971606 14.05961404 1.48733693
Te -6.79360793 13.76385668 12.52673190
Te 4.24605293 2.20215984 2.02499499
Te 4.12549593 2.20658858 12.65624702
Te 2.20928981 6.22447554 2.02723611
Te 2.42602344 6.45039428 12.47554119
Te 0.31095413 9.92882216 2.04482765
Te -0.23287538 10.33977637 12.56484150
Te -1.76507851 13.85243765 1.88257649
Te -2.19411319 13.99941029 12.56765507
Te 8.69955881 2.10126419 2.30171596
Te 8.32398879 2.09803383 13.06168082
Te 6.39304731 5.86996877 2.17455813
Te 6.70888861 6.15801854 12.61885246
Te 4.51500582 9.82767478 2.04338890
Te 4.11966647 10.05392738 12.63295025
Te 2.58631579 13.26220694 1.94837652
Te 2.02381094 13.80949367 12.39485181
Te 13.29724447 2.03742428 2.11313401
Te 12.61790771 1.99699358 12.71690137
Te 10.73965797 5.75982743 2.29797086
Te 10.61422884 5.85077451 12.92989978
Te 8.64808357 9.90284086 2.07745381
Te 8.38293681 9.75566409 13.11414729
Te 6.76214601 13.34677953 2.14872214
Te 6.29589645 13.56544571 12.74390584
Te -0.02078785 0.23884179 4.97980609
Te -0.26852716 0.35278742 16.23442549
Te -2.22341719 3.89238979 5.17094073
Te -2.34358366 4.01443992 15.88281396
Te 12.98027754 7.03447728 5.89857615
Te 12.40320817 7.18679038 16.57375466
Te 10.86916965 10.78724462 5.67878175
Te 10.50634736 10.69371331 16.30959509
Te -4.15717471 14.98954748 5.51933369
Te -4.54620617 14.91269415 15.84149193
Te 2.14959391 3.78994462 5.57440811
Te 1.99797408 3.83865334 16.17524743
Te -0.00589111 7.29090974 5.51732314
Te -0.17256719 7.54301644 15.74521304
Te -2.53371642 11.42975315 5.13016364
Te -2.24920257 11.17192297 16.10772342
Te 0.20094927 14.84668120 5.25563191
Te -0.30560333 14.81125803 16.22404830
Te 6.19458136 3.60130838 5.75825081
Te 6.16558773 3.58051295 15.89527627
Te 4.28725700 7.52780400 5.79644815
Te 3.68741972 7.68448308 16.20828173
Te 2.14299801 11.33305409 5.75302359
Te 1.94240124 11.00855725 16.41825229
Te 4.71619477 14.62810821 5.89902971
Te 3.94217655 14.83000903 16.73809806
Te 10.73772838 3.65754812 5.81323518
Te 10.52988672 3.16783499 16.53200355
Te 8.56825466 7.03262163 5.58645735
Te 8.06597627 7.50339850 16.40701182
Te 6.64501562 10.96073419 5.78042312
Te 6.34736599 10.86751833 16.24303904
192
Time=70000.00000007 pbc="T T T" Lattice="17.27501806 -0.29442054 0.62353913 -8.40305279 15.15306935 -0.08479672 -0.64724701 -0.03853196 21.43540205" energy=-809.25469202 virial="4.61574270 2.52194529 -4.16972380 2.52194529 -18.71446451 -16.38479190 -4.16972380 -16.38479190 -15.56775071" stress="0.00320919 0.00045336 -0.00074958 0.00045336 -0.00098480 -0.00294544 -0.00074958 -0.00294544 -0.00041913" Properties=species:S:1:pos:R:3
Ge -0.34682718 0.15291206 10.90404477
Ge 8.71078292 14.33229848 0.76015982
Ge 14.34077726 3.09275185 11.29377077
Ge 15.19366029 2.83484406 1.06535165
Ge 12.59356910 7.52372318 11.05238881
Ge -4.70827484 7.81818583 21.30951012
Ge 10.62036774 10.83961175 11.56071168
Ge 10.15999828 11.09417936 21.92540114
Ge -4.50999821 14.75188252 10.78080809
Ge 4.30249014 -0.00896101 0.33444117
Ge 2.07558185 3.69445262 11.28743762
Ge 1.96139404 3.47139460 0.36487414
Ge -0.21385034 7.51912129 10.91535484
Ge -0.09012760 7.83281633 0.28233026
Ge -2.20825680 11.45988606 11.60821739
Ge -1.81481502 11.53065190 0.51175848
Ge 0.13473227 14.63926945 11.05626384
Ge 6.20293278 3.46760031 10.59017184
Ge 6.52492667 3.91840770 0.59473091
Ge 4.24362356 7.61653724 11.39745857
Ge 4.59162707 7.53434267 0.43208877
Ge 1.95564055 11.23009333 11.12144794
Ge 2.33287238 11.05344557 0.39550887
Ge 12.77064269 -0.22550623 11.56367599
Ge 12.18006108 0.13958927 21.74529097
Ge 10.74923673 3.58244375 11.54708658
Ge 10.26611118 4.14373274 21.78288054
Ge 8.76533325 7.19081771 11.42411738
Ge 6.13333688 11.46804902 11.46130725
Ge 6.04844906 11.60762643 21.81051486
Ge 2.07348442 1.54698654 4.13943907
Ge 1.82381609 1.27477575 14.36977974
Ge 0.30558253 4.72827109 3.63902634
Ge -0.38981471 5.00460824 14.50582490
Ge -2.30673198 8.29089781 3.82621657
Ge -2.40924002 8.85864801 14.40081444
Ge -4.07227451 12.66220711 3.82875524
Ge -4.50820352 12.51910704 14.45279702
Ge 6.29020930 1.19411338 3.79865337
Ge 5.99526039 1.03436240 14.65540614
Ge 4.34970876 4.88215441 3.72972113
Ge 3.75346531 4.99026655 14.75255734
Ge 2.38309532 8.84100666 3.68389315
Ge 1.84510761 8.93151625 15.14788673
Ge 0.50543407 12.49101828 3.73658876
Ge -0.18919011 12.62802520 14.84021047
Ge 10.25959064 0.85716207 4.11731976
Ge 9.89658615 1.22860139 14.78503145
Ge 8.92777948 4.51994499 4.30465163
Ge 8.42721252 4.63160677 14.68184979
Ge 6.33732691 8.89543190 4.28999612
Ge 6.23936837 8.55318313 14.60242848
Ge 4.07756026 12.66868184 14.42448604
Ge 15.37770060 1.23929810 4.76505982
Ge 15.31100258 1.05521193 15.42765961
Ge 13.17840532 4.75142546 4.03330291
Ge 12.75791084 4.81318941 15.13543407
Ge 11.18335216 8.48435903 4.01607281
Ge 10.36192185 8.25519184 14.97679262
Ge 8.78370345 12.65548382 4.21859272
Ge 8.68025843 12.49863112 15.18222270
Ge -0.69789560 2.78613644 18.19259507
Ge -2.24572175 6.47396951 7.35683502
Ge -2.79543308 6.20145548 17.91578976
Ge -4.53418283 10.24993980 6.71185699
Ge -4.91031870 10.29422708 18.23169216
Ge -6.59055869 13.72605653 7.59927034
Ge -6.83403403 13.73469079 18.42813727
Ge 4.21182469 2.06439318 7.57942877
Ge 3.89859024 2.74267922 18.44035103
Ge 1.82840929 6.43447090 7.74681215
Ge 1.58046497 6.10107440 18.31486401
Ge -0.41532844 10.25415314 18.25301538
Ge -2.45334298 13.79203554 6.98228319
Ge -2.66428326 13.69145027 18.49322089
Ge 8.16128565 1.97875769 7.44420186
Ge 8.03787143 2.69126142 18.48023480
Ge 6.08175424 6.44345528 7.80257319
Ge 5.56636277 6.41805292 18.61979801
Ge 4.36085057 10.13635947 8.00815769
Ge 4.02890712 9.74131085 18.50009217
Ge 2.10780724 13.72916895 7.64261677
Ge 1.61652935 13.52888169 18.28832456
Ge 12.64592494 1.98512936 7.74376465
Ge 12.22282543 2.15745305 18.40526833
Ge 10.49550942 6.17960276 7.40294361
Ge 10.22033659 6.09842316 18.56449936
Ge 8.78387853 9.75628516 7.92002098
Ge 8.31118834 9.67672708 18.33286093
Ge 6.05210550 13.30598645 7.84874978
Ge 6.00523623 13.39141252 18.21601417
Te 8.64074336 0.09751170 0.40497886
Te 8.87161190 7.61126442 0.65977181
Te 4.30011905 12.32152172 4.42992544
Te 0.45185117 2.38741522 7.38249534
Te -0.19790630 10.14111039 7.42322642
Te 1.85987749 0.79144705 9.27674492
Te 1.58939110 0.94847038 19.92576606
Te -0.25913737 5.31560665 9.26559121
Te -0.59529543 4.83257960 20.14616869
Te -2.31071196 8.69773172 9.26876308
Te -2.53304823 8.55827534 19.48470677
Te -4.50785880 12.19724900 9.29115721
Te -4.85808644 12.50967253 19.94577102
Te 6.24372829 0.83202516 9.31094911
Te 5.93602020 0.91587604 19.95343312
Te 4.14235776 4.97357110 9.08806485
Te 3.51357968 4.93965089 20.28235713
Te 1.98318199 8.65201708 9.72382413
Te 1.55499849 8.70787508 20.23472387
Te 0.10588147 12.30022155 9.37519569
Te -0.44958544 12.54927997 19.71906753
Te 10.29673529 1.01203763 9.35539433
Te 10.18428285 1.20464269 19.99941768
Te 8.77686479 5.05477078 9.60241753
Te 8.12319287 4.90686120 20.37552511
Te 6.20186486 8.65081976 9.67271072
Te 5.94596420 8.74541253 20.38582861
Te 4.34684678 12.50887766 9.49343006
Te 3.79838459 12.17174866 19.87708669
Te 14.43211357 0.88796908 9.80623329
Te 14.46331027 0.72220813 20.17053121
Te 13.03624215 4.80890285 9.65668106
Te 12.30507441 4.56605955 19.96839363
Te 10.61752482 8.51868604 9.38586881
Te 10.33471023 8.51568871 20.17614709
Te 8.34543821 12.30980030 10.03239567
Te 8.06676138 12.40642691 20.06753134
Te -0.18732199 2.07667561 1.84738554
Te -0.19957452 2.59761562 12.67961234
Te -2.14316971 6.37366975 1.47351150
Te -2.01789588 6.26613655 12.78594117
Te -4.31655782 10.19193506 1.72905480
Te -4.55177289 10.21823121 12.88848550
Te -6.35604231 13.77202275 1.69279631
Te -6.46863812 13.87930687 12.87083296
Te 4.45655312 2.43937823 1.83443383
Te 4.10815742 2.38237181 12.55546771
Te 2.09958483 5.96810430 2.21506422
Te 1.95690883 6.40241777 13.09324231
Te 0.17167677 10.00926272 1.99017390
Te 0.03166557 10.04237161 12.84973694
Te -2.11328321 13.70531350 2.08010822
Te -2.26019393 14.08959519 12.82863139
Te 8.41058507 2.41557301 2.58721781
Te 8.43520482 2.47285452 12.80321181
Te 6.51598113 6.12598323 2.26436351
Te 6.46861730 5.89038023 13.02193716
Te 4.17106780 9.94680970 2.19002955
Te 4.08182592 9.72969208 13.21613164
Te 2.33871413 13.89130093 2.18247465
Te 2.24293652 13.60613518 12.83267299
Te 13.06612774 1.83741133 2.62261775
Te 12.36492549 2.11439967 13.12004160
Te 10.86103141 6.14007101 2.34153411
Te 10.62005017 6.16098425 13.16705227
Te 8.55110551 10.19409399 1.92852634
Te 8.41289067 10.00116464 13.15401863
Te 6.64992721 13.71409287 2.66416611
Te 6.21667391 13.67863331 13.14253382
Te -8.46627341 15.07359406 5.67154690
Te 0.04236258 0.05408561 16.16511587
Te -2.40779615 4.04338014 5.34185410
Te -2.35806708 3.74274585 16.22389214
Te 12.72949266 7.28783645 5.83668158
Te -4.65116717 7.88979250 16.04577409
Te 10.57993977 11.07352299 6.02686443
Te -6.70408817 11.39940123 15.92143263
Te -4.26794511 14.98695285 5.53191706
Te 3.94004290 -0.00182208 16.15011831
Te 2.39392314 3.74026715 5.38147023
Te 1.96475896 3.90584554 16.55479070
Te -0.36411055 7.36789885 5.40024144
Te -0.31063541 7.35076404 16.11316604
Te -2.40829285 11.39296912 5.80623798
Te -2.31901935 11.05391265 16.20105408
Te -0.20610507 14.87505989 5.77041197
Te 8.19843762 -0.07477393 16.38511418
Te 6.32024262 3.60616591 6.00749276
Te 5.86307600 3.87113502 16.72839870
Te 4.15911850 7.28601788 5.55674978
Te 3.77202612 7.35431446 16.73508822
Te 1.98460546 11.02459451 5.81899171
Te 1.95772667 11.28440760 16.51190274
Te 12.99425758 -0.09294314 6.19690008
Te 4.13561527 14.65844099 16.70618486
Te 10.87160724 3.39624755 5.95474802
Te 10.65634586 3.42728034 16.53630630
Te 8.70504779 7.39950979 5.57754566
Te 8.33586193 6.86984517 16.76965987
Te 6.43756015 10.74455579 6.09813735
Te 6.15318549 11.04407832 16.69826901
192
Time=80000.00000008 pbc="T T T" Lattice="17.46294548 -0.29215160 0.39780737 -8.26046427 15.12002834 0.25577782 -0.31403283 -0.11969255 21.43138801" energy=-808.37954104 virial="-19.58868517 -4.76456856 -3.69591904 -4.76456856 -26.31924743 -24.88669673 -3.69591904 -24.88669673 -30.52444535" stress="-0.00113252 -0.00084943 -0.00065891 -0.00084943 -0.00233244 -0.00443681 -0.00065891 -0.00443681 -0.00308215" Properties=species:S:1:pos:R:3
Ge -8.22984380 14.94707526 11.31591235
Ge 17.12342820 -0.21388818 0.82745680
Ge -1.60121694 3.37405861 10.84237746
Ge 15.14509456 3.37702375 0.62755001
Ge 13.40763029 6.78386795 11.01228452
Ge -4.15609368 7.69068286 0.22734102
Ge -6.19598020 11.23060823 11.06333078
Ge -6.19493311 11.63265085 21.62390393
Ge -4.38646954 14.84224427 11.30575103
Ge -3.96281738 14.93728435 0.64284649
Ge 2.10346345 3.80748671 11.20813939
Ge 2.17006972 3.23709977 0.58851299
Ge 0.51348087 7.14267047 10.95947365
Ge -0.13273787 7.36102285 0.33897198
Ge -2.23348019 10.83628910 11.02306804
Ge -1.60386902 11.46650244 0.63293190
Ge 8.89663724 -0.21160319 11.06521764
Ge 6.72912753 3.17635993 11.16977337
Ge 6.65966385 3.79115230 0.71848907
Ge 4.42142432 7.13438216 10.98815964
Ge 4.33721299 7.36707526 0.36098637
Ge 2.23727265 11.46897922 10.84905058
Ge 2.51288717 11.47509302 0.96353202
Ge 13.02424029 0.02740615 11.05415533
Ge 4.98418886 14.88800404 0.71446089
Ge 10.43513374 3.42011856 11.00234410
Ge 10.65627996 3.37408592 21.72864048
Ge 8.95101678 7.11287686 10.99345211
Ge 6.61626527 11.56243350 11.44778539
Ge 7.06538665 11.50375195 0.56003728
Ge 2.29618687 1.44882465 3.82368050
Ge 2.45772689 1.38942533 15.11970880
Ge 0.26314058 4.90407669 3.73654557
Ge 0.22349274 4.93895913 14.80192926
Ge -2.16037430 8.74761060 3.47050128
Ge -2.35766489 8.73575867 14.68189036
Ge -3.97648542 12.44225371 4.21451154
Ge -3.92561223 12.39357796 14.56009074
Ge 6.71750632 1.28487004 3.96582467
Ge 6.35299260 0.88355185 14.59876241
Ge 4.35298503 5.16878965 3.79003636
Ge 4.37969611 4.67561334 14.43341847
Ge 2.44010563 8.99373685 3.62089902
Ge 2.17597314 8.61812747 15.02899626
Ge 0.11080386 12.76334609 4.53955423
Ge -0.32185589 12.10380164 14.97719001
Ge 10.94603573 0.64869943 4.18512957
Ge 11.10924795 1.20407891 14.32334895
Ge 8.82132091 4.71758200 4.56535148
Ge 8.63351958 4.93283619 15.19074542
Ge 6.56396728 8.75482520 4.19205824
Ge 6.54668308 8.32623851 14.54425400
Ge 4.20887421 12.41419436 14.85149262
Ge 15.06491934 1.12506096 4.44571146
Ge 15.33433290 1.05152029 14.93951805
Ge 13.28498225 4.58435979 3.91279766
Ge 13.21091528 4.63728627 14.57080556
Ge 10.61347423 8.32428450 4.14746114
Ge 10.72366647 8.13897539 14.63180280
Ge 9.22648719 12.49088536 4.28928503
Ge 8.91949947 11.81535623 14.80355175
Ge 0.08250590 2.06740010 18.38464359
Ge -2.40613173 6.14806694 6.98537940
Ge -2.63200010 6.21787949 18.69576235
Ge -4.18783299 10.17134357 7.49816174
Ge -4.40739866 9.72509534 18.16000046
Ge -6.34810788 14.08840761 7.23429936
Ge -6.05344960 13.52293037 18.36207528
Ge 4.20192674 1.90654658 7.37906231
Ge 4.57001760 2.66563630 18.30505230
Ge 2.03903726 6.56030517 7.59274763
Ge 2.42965327 6.51787222 18.39917166
Ge -0.45257795 10.17671717 18.23400630
Ge -1.91288148 13.79905749 7.34941545
Ge -1.65178244 14.27084632 18.71535256
Ge 8.36472061 2.60401817 7.73357608
Ge 8.57346469 2.54639786 18.22194243
Ge 6.66989213 6.14482310 7.15590160
Ge 6.50524614 6.76676733 18.61647801
Ge 4.54966815 9.94261958 7.61797326
Ge 4.16805074 10.14289122 18.04346401
Ge 2.40703757 13.19545415 7.66384328
Ge 2.38522278 13.78603986 18.47173589
Ge 13.11332025 1.71081279 7.68894263
Ge 12.69871436 2.24653364 18.38464196
Ge 11.11075262 6.01231076 7.53977790
Ge 10.97013988 5.69678295 18.40618270
Ge 8.81571147 9.64766990 8.08464679
Ge 8.65991578 9.75176571 18.46234008
Ge 7.00722353 13.57657962 8.37741458
Ge 6.35497083 13.17135260 18.61004692
Te 8.71635882 -0.08565592 0.80574486
Te 8.70052073 7.59035384 0.62957305
Te 4.48028235 12.29340443 4.26022988
Te 0.29255224 2.27565679 7.22574484
Te 0.20234534 9.83135419 7.50455014
Te 2.25558985 1.09741563 9.52482999
Te 1.98220024 1.02590753 20.09308488
Te 0.25813467 4.94664262 9.02230968
Te -0.04021595 5.10764152 19.48897640
Te -2.09331664 8.36784261 9.34560916
Te -2.34165723 8.81821332 19.99109169
Te -4.04750776 12.28545940 9.61303861
Te -3.94140803 12.77272909 20.17230898
Te 6.57379034 0.84894199 9.10628294
Te 6.42314836 1.24215628 20.00437291
Te 4.16399120 4.70724057 9.64048754
Te 4.31807784 4.73311859 20.16390965
Te 2.50753809 8.50402861 9.58351717
Te 2.26546752 8.60353027 20.02365598
Te 0.18936423 12.52272551 9.46950980
Te -0.01451369 12.29150271 20.13623904
Te 11.00386592 1.36909324 9.25809783
Te 10.57034026 1.09587548 19.98744189
Te 8.49736179 4.81232564 9.46884099
Te 8.49063978 4.66531876 20.36058716
Te 6.72844523 8.11192302 9.39574081
Te 6.16896158 9.03526426 19.80169627
Te 4.67078044 12.42937890 9.70130838
Te 4.34914198 12.13558972 20.15138201
Te 15.32552921 1.09022721 9.65076311
Te 15.17346991 0.87482332 20.04937841
Te 12.77726211 4.65145040 9.28476439
Te 12.95253356 4.48920374 20.27114750
Te 11.03807428 8.45004069 9.75095775
Te 10.82555215 8.27018290 20.54305500
Te 9.16172278 12.48382793 9.41800488
Te 8.86636923 12.38619138 20.31824141
Te 0.05519076 2.44394063 2.12681890
Te -0.00699067 2.19579347 12.83981167
Te -2.06127857 5.91395282 2.01461206
Te -1.95056399 6.05580077 12.22237043
Te -4.25658758 9.96520902 1.95239126
Te -4.41817429 9.82840068 12.84967063
Te -6.11770139 13.94854986 2.07786994
Te -6.17933929 13.61492136 12.88676740
Te 4.23139332 2.54522751 2.04386629
Te 4.43820562 2.32711972 12.83168619
Te 2.20414209 6.28618882 2.24372569
Te 2.32745189 6.35152329 13.06905129
Te 0.33024167 9.99276257 2.27221062
Te 0.06431584 9.94929838 13.26758669
Te -1.97978968 13.49178521 2.49921193
Te -1.79799599 13.45290591 13.07482332
Te 8.55567662 2.64839688 2.49302506
Te 8.36753498 2.06062987 12.90763510
Te 6.58955666 6.29942307 2.23758447
Te 6.75832960 6.00265974 12.82512629
Te 4.51503528 9.80660874 2.17132903
Te 4.84977786 9.63807524 12.88357616
Te 2.63961434 13.73501296 2.51498697
Te 2.52910271 13.83208328 12.89497280
Te 13.29014291 2.26183018 2.37008577
Te 13.48436583 2.13374064 12.87838501
Te 11.09689514 6.22811616 2.20302149
Te 10.71592688 5.73073160 13.24751221
Te 9.16905325 9.90549826 2.49930655
Te 8.88953334 9.59223199 13.25747196
Te 6.77620453 13.88674631 2.51447855
Te 6.79722860 13.54954404 13.49889820
Te -8.26276304 14.99067604 5.65943623
Te 0.19947340 0.15672768 16.35786866
Te 15.34868244 3.39304998 5.84356328
Te -2.07497705 3.97425605 16.15803410
Te 13.21135664 7.24991499 6.21592402
Te 12.99316866 6.91493374 17.17275021
Te 11.27330884 10.81402484 5.86947416
Te -6.35484822 11.21093342 16.42063569
Te 4.10505057 -0.07258585 5.48962162
Te -3.78375359 14.78111325 16.41628394
Te 2.31755439 3.81704306 5.41334253
Te 2.15984486 3.81931380 16.51737180
Te 0.27036966 7.39106469 5.67196421
Te 0.11851448 7.48881180 16.37885326
Te -1.89832305 11.05991666 5.78980533
Te -2.51236092 11.00366330 16.55916328
Te 8.68973245 -0.17404320 6.13491801
Te 0.23891351 14.81887198 16.54786678
Te 6.45239852 3.44818943 6.01449378
Te 6.33037572 3.76087021 16.61469683
Te 4.58128372 7.44404774 6.11205895
Te 4.29890354 7.30963113 16.34671724
Te 2.39104481 10.99940832 5.93845356
Te 2.14026024 11.24958806 16.48964237
Te 4.92754294 14.82013528 6.15879855
Te 12.76723910 -0.19244651 16.35462658
Te 10.66074144 3.54883855 6.27893520
Te 10.71785334 3.31380401 16.30765503
Te 8.83790803 7.53160776 6.22243686
Te 8.90859615 7.10688604 16.83830442
Te 6.40484062 11.24215025 6.03479473
Te 6.81686738 11.26490535 16.80296943
192
Time=90000.00000003 pbc="T T T" Lattice="17.34496730 -0.06844679 0.16145779 -8.62369874 14.76980618 0.31685875 -0.25495646 -0.83794531 21.43362998" energy=-811.65738031 virial="-22.76472730 3.10846039 -2.78051731 3.10846039 6.47873566 19.49188714 -2.78051731 19.49188714 -23.50341875" stress="-0.00173784 0.00056693 -0.00050712 0.00056693 0.00359569 0.00355500 -0.00050712 0.00355500 -0.00187256" Properties=species:S:1:pos:R:3
Ge 17.00603085 -0.25253819 11.08150132
Ge -0.01289027 0.07069804 0.23106330
Ge -2.17063878 3.32568849 10.53255002
Ge 15.25686991 3.35320131 0.56175521
Ge 12.88321544 6.91932101 11.15992505
Ge -3.96284988 7.33428818 0.25246746
Ge -6.51227263 10.79139627 11.12005034
Ge -6.33277812 11.06435197 0.28293403
Ge 3.79920450 -0.12594668 10.92898635
Ge 4.33069713 0.07231278 0.56905684
Ge 1.84101647 3.41059515 10.86522820
Ge 2.27284340 3.55948983 0.49745050
Ge 0.11525312 6.60412231 10.99800267
Ge 0.12875942 7.19784229 0.32106974
Ge -2.25960223 10.65891803 11.32000798
Ge -2.26701477 11.10383684 0.51091137
Ge 0.13633122 14.04582909 11.16851289
Ge 6.43598440 3.19070677 11.53262334
Ge 6.40054741 2.80676416 21.29678883
Ge 4.05171841 6.52729342 11.06462396
Ge 4.37176436 6.65766894 21.61829222
Ge 2.02977043 10.25867975 11.05479190
Ge 2.12212776 11.11519687 0.89317781
Ge 12.95596935 -0.41907365 10.63054480
Ge 4.12808465 14.66343373 0.83281347
Ge 10.36553155 2.84393080 10.92133944
Ge 10.96082497 3.53415181 0.66340565
Ge 8.85680649 7.13089303 11.29318517
Ge 6.22062773 10.99852071 11.00242754
Ge 6.61326827 11.08122142 0.47865879
Ge 2.04850998 0.98586192 3.87863676
Ge 2.25389467 1.25636467 14.69740931
Ge -0.22459469 5.08665472 3.69986472
Ge -0.02003947 4.09081434 14.56460415
Ge -1.94145889 8.55180244 4.18223772
Ge -2.05056907 7.63585689 14.60613019
Ge -4.29234040 12.24651563 3.98020353
Ge -4.19432696 11.66628143 14.83554508
Ge 6.17716455 0.98576508 3.93968838
Ge 6.49493601 0.64535085 14.57804466
Ge 4.51270101 4.72077758 3.95248569
Ge 4.29024784 4.44439025 14.74498157
Ge 2.19095808 8.70321817 3.80437093
Ge 2.25466252 8.01519685 14.65368776
Ge 0.10724558 12.05263151 3.97814003
Ge -0.28582715 11.44397156 14.89482581
Ge 10.43074419 1.11059709 3.60780070
Ge 10.89800629 0.19834717 14.84924657
Ge 9.07494689 4.73531749 3.54742808
Ge 8.41589804 4.51189605 14.83215601
Ge 6.21028293 8.03847051 3.68659983
Ge 6.63538632 8.18360701 15.19095293
Ge 4.21839939 11.41053937 14.99804319
Ge 15.09279206 0.58407284 4.27559040
Ge 14.63837503 0.67364652 14.52151722
Ge 12.79262163 5.01852512 3.74127643
Ge 12.96636151 4.39886873 14.33796108
Ge 10.91597958 8.55020948 4.03894875
Ge 10.77287476 7.94174764 14.87746058
Ge 8.39952792 11.89990867 3.87985760
Ge 8.87711622 12.44321399 14.80650921
Ge -0.24560413 1.72860658 18.21695654
Ge -2.38887622 5.98309926 7.05821226
Ge -2.56462289 5.39177233 18.15871090
Ge -4.41601538 9.58401678 7.24656585
Ge -4.70813926 9.06380255 18.73620872
Ge -6.51660149 13.17448245 7.75864891
Ge -6.63797184 12.80222697 18.30554887
Ge 4.73013919 2.26997679 7.41141201
Ge 4.00590444 1.73969034 18.22919502
Ge 1.92151789 5.53094440 7.53375980
Ge 2.34046573 5.33833034 18.73170021
Ge -0.08354497 9.28222911 18.44391464
Ge -2.36176040 13.47301722 7.63891605
Ge -2.16219092 12.29914925 18.36094035
Ge 8.76500287 2.32431743 7.40127821
Ge 8.19962205 1.63093055 18.20193670
Ge 6.24023225 6.17027961 7.76019058
Ge 6.09871387 5.35068233 18.54157447
Ge 4.15683983 9.56940347 7.64321435
Ge 4.01266805 9.06285196 18.82965991
Ge 1.73274101 13.14921281 7.37688662
Ge 2.34922056 12.40445491 18.75199486
Ge 13.04592856 1.88541210 7.22557757
Ge 12.25712694 1.67791434 18.12290603
Ge 10.66577674 5.96797239 7.73533517
Ge 10.87012348 5.20078453 18.30356819
Ge 8.37484438 9.55927873 7.14576795
Ge 8.69327593 9.16697450 18.47957411
Ge 6.57699944 13.01604086 7.69534924
Ge 6.82637162 12.99497975 18.56117262
Te -0.11661296 14.56750006 0.51150189
Te 8.56773076 7.17694833 0.29018759
Te 4.14107553 12.18135733 4.04190620
Te 0.09001783 2.17139356 7.02288587
Te -0.19260147 9.34836315 7.52028986
Te 2.40917722 1.07613813 8.95628423
Te 1.93136834 0.62782221 19.60003958
Te -0.05750992 4.49521103 9.06724212
Te -0.06872416 4.01361309 20.23520503
Te -2.43155608 8.21289662 9.32972125
Te -2.32252048 7.89533001 20.15171367
Te -4.68396999 11.87288913 9.50060205
Te -4.41452269 11.83347208 20.08548862
Te 6.57085664 1.17723432 9.26776443
Te 6.12033825 0.27028888 19.40719437
Te 4.16489621 4.59190744 9.29204232
Te 4.12763641 3.88368551 20.25143846
Te 2.22760647 8.16275616 9.24461616
Te 1.79493965 7.86211035 20.22289777
Te 0.09279635 12.05244598 9.39911184
Te 0.03063320 11.49217093 20.04774172
Te 10.65199967 0.95019774 8.98883070
Te 10.56694626 0.40119186 19.99342111
Te 8.57781841 4.76414383 9.63592265
Te 8.28934593 3.89707565 19.97921989
Te 5.87584155 8.16416493 9.62688049
Te 6.37613782 7.89627232 19.80983052
Te 4.02403960 11.97725420 9.35258536
Te 4.20089341 11.25780868 20.74234044
Te 14.78998924 0.78703048 9.02197474
Te 14.69747721 0.33338840 20.08285947
Te 13.27387595 4.74384121 9.05896325
Te 12.84521968 4.07250987 20.14195827
Te 10.51604101 8.19173725 9.27081075
Te 10.45648469 7.61174993 19.93826509
Te 8.41268497 12.02850398 9.75015097
Te 8.56360142 11.52240417 20.37957473
Te 0.19617496 2.04561453 2.02521201
Te -0.03250261 2.15242574 12.61011354
Te -2.18248773 6.10015214 2.05835955
Te -2.17485915 5.51662777 12.71139682
Te -4.29776171 9.81842851 2.12195989
Te -4.80386392 9.40640488 13.09908924
Te -6.25231586 13.43203359 2.06178977
Te -6.70609202 13.37422263 12.63622394
Te 4.60266686 2.38449149 2.03163844
Te 4.04852649 2.28569000 12.63276023
Te 2.37096951 5.93244871 1.94019512
Te 1.89426695 5.49322243 13.18490206
Te -0.01151881 9.77682338 2.26343116
Te -0.18209959 8.98507948 12.92222680
Te -2.32017221 13.52338499 2.38806412
Te -2.41035294 12.87401338 12.93599174
Te 8.65954740 2.24672604 1.92647081
Te 8.75976409 1.88982993 12.85053268
Te 6.41259213 5.86343279 1.76264773
Te 6.51796905 5.54518025 13.01281393
Te 4.40625779 9.69056974 2.06281911
Te 4.45225387 9.26296293 13.35428485
Te 1.87595331 13.64040000 2.49862963
Te 2.02210826 12.77946126 13.28778101
Te 12.85284546 2.23357916 2.23574889
Te 12.73926548 1.99326487 12.68901598
Te 11.11693619 6.29095661 2.04066168
Te 10.61526802 5.51806387 12.92772458
Te 8.67494103 9.73719402 2.23032051
Te 8.59842619 9.14606176 13.34692603
Te 6.54287602 13.41467783 2.29843125
Te 6.17160134 12.92425526 13.28050982
Te 8.81184190 14.17364481 6.04999185
Te -0.09924454 -0.43524674 16.31049491
Te -2.10166802 3.87951753 5.24801443
Te 14.68007661 2.80597995 16.56890510
Te -4.27058620 7.44395127 5.55965437
Te -4.48943799 6.80298287 16.72176284
Te -6.36091450 10.90809641 5.62379938
Te 10.71705769 10.24051029 16.89290150
Te 4.13344009 -0.13502451 5.75362967
Te 4.45206484 -0.58558407 16.11806711
Te 2.09937037 3.81260250 5.30208281
Te 1.95778426 3.03735013 16.72375892
Te 0.21134465 7.14309662 5.63234261
Te -0.57982227 6.64834309 16.55941197
Te -2.17391774 11.04088175 5.68292706
Te -2.32056830 10.10567688 16.29262793
Te 8.55753669 0.11727928 5.62375579
Te 0.00137456 13.95469324 16.38916676
Te 6.69222143 3.52117376 5.43554682
Te 6.21058663 3.01048093 16.33707271
Te 4.53531982 6.86712834 5.83330988