192
Time=60000.00000005 pbc="T T T" Lattice="17.34763918 -0.91612601 -0.31031624 -7.64419525 15.45076408 0.57381548 0.63848722 -0.57086171 21.59581289" energy=-805.08963764 virial="-20.99566611 -8.55775423 -0.25631589 -8.55775423 -27.91237950 -3.02510122 -0.25631589 -3.02510122 -29.63312255" stress="-0.00108175 -0.00151638 -0.00004542 -0.00151638 -0.00230735 -0.00053603 -0.00004542 -0.00053603 -0.00261226" Properties=species:S:1:pos:R:3
Ge 0.65564645 -0.03668594 10.76226048
Ge 9.40131264 14.48916669 0.35893172
Ge -1.29205110 3.90329231 11.25348604
Ge 15.12585252 2.84598637 0.23061268
Ge 13.93605723 6.17345650 11.04878789
Ge -3.56394969 7.62774861 0.62799308
Ge -4.62175827 11.46934049 10.97635554
Ge -4.91506977 10.64546605 21.73773797
Ge -3.00755199 14.87515269 11.43111714
Ge -3.19075230 14.76502172 0.73780685
Ge 2.45247884 3.26636240 10.90029876
Ge 2.39399329 3.61991987 0.29137748
Ge 0.96076678 7.44413992 11.39681560
Ge 0.51356730 7.85832784 0.41850509
Ge -1.12462961 11.05579391 11.38747895
Ge -1.16771659 11.61033292 0.40393643
Ge 1.37343297 14.47730723 11.16644868
Ge 6.86015371 3.02651083 10.82501498
Ge 6.82129812 3.21190667 0.57317982
Ge 4.95002672 7.03619672 10.86784422
Ge 4.65605618 7.26621621 0.45820044
Ge 3.74600366 11.03142255 11.89761011
Ge 3.00151889 11.62954967 0.40743031
Ge 13.29138505 -0.95803211 10.51763696
Ge 12.72378247 -0.53242268 0.04973666
Ge 11.14414106 3.30006682 11.29352825
Ge 11.10296939 3.07884308 0.17200962
Ge 9.44793134 6.78138711 11.43729424
Ge 8.23649898 10.79921867 11.47175379
Ge 6.86990550 10.71909123 0.39712275
Ge 2.14630516 1.54797381 3.72121384
Ge 2.31371562 1.06930969 15.00843433
Ge 0.30528191 4.88049057 4.43555288
Ge 0.93864006 4.68647244 14.86550073
Ge -1.72506817 8.60775219 3.51645413
Ge -0.79301691 8.51067906 15.05524247
Ge -3.47896952 12.44642751 4.50835768
Ge -3.13061455 12.57805113 14.74293341
Ge 6.25242894 0.50076943 3.84268185
Ge 6.90457539 0.23312504 14.40832805
Ge 4.83923038 4.75356215 3.30716376
Ge 5.46341440 4.37347967 14.70828039
Ge 2.45447628 8.54360748 3.50669999
Ge 3.42665748 8.20505202 14.68400623
Ge 0.90739213 12.74327968 4.31292271
Ge 1.21547896 11.84210482 15.09114606
Ge 10.86339431 0.56886333 3.55553711
Ge 10.74142763 0.43933070 14.37497018
Ge 8.85458795 4.12849758 3.90221280
Ge 9.24610774 3.95824431 14.53140933
Ge 7.57173112 8.25044683 4.09374511
Ge 7.76556446 7.86518364 14.77113299
Ge 5.53912150 11.99471335 14.80617511
Ge 15.19826423 -0.17651520 3.78836942
Ge 15.66363859 0.36382482 14.34021737
Ge 12.86325247 4.10270492 3.58630214
Ge 14.09006143 3.84747749 14.80871249
Ge 11.41202005 8.12235659 3.50026191
Ge 12.00139020 7.73484067 15.04850016
Ge 9.55886306 11.77337417 4.18525922
Ge 10.02481032 11.60427582 14.95316962
Ge 1.03635133 2.36770806 18.42341705
Ge -1.11937165 6.02843563 7.63260715
Ge -1.16362830 5.86845770 18.62831408
Ge -3.65531352 9.31106123 7.73470719
Ge -2.97518088 9.72038130 18.70608368
Ge -5.27646182 14.22242857 8.28428470
Ge -4.90901009 13.53131932 18.78906542
Ge 4.57645165 2.01366584 7.01969534
Ge 5.10764217 1.68433574 18.55396299
Ge 3.13299580 5.76646398 7.13265332
Ge 3.71681111 5.71894108 18.24159526
Ge 1.40841442 9.04915835 18.54947654
Ge -0.53463862 13.46217642 8.27606940
Ge -0.51455399 13.11654719 18.65925021
Ge 8.94375560 2.02650789 7.95916522
Ge 9.00040071 2.02190803 18.58838238
Ge 7.46261534 5.80090235 7.65122567
Ge 7.15824788 5.59134574 18.45381070
Ge 5.28379600 9.25043923 7.53770535
Ge 5.90247922 9.84220591 18.42945905
Ge 3.11795099 13.24384909 7.67182101
Ge 3.79992123 12.65296584 18.21640377
Ge 12.88234469 1.53239554 6.94461335
Ge 13.42783093 1.30889284 18.20251020
Ge 11.39995850 5.42262292 7.42923702
Ge 12.05812745 5.03153642 17.95566052
Ge 9.58896816 9.46103529 7.89305221
Ge 10.05934583 9.18167868 18.20984771
Ge 7.10286375 13.29229018 7.64422179
Ge 8.20700649 13.02878157 18.11735308
Te 0.96094384 14.85811183 0.65665192
Te 9.29584800 7.63420805 0.35873738
Te 5.39389382 12.15235166 4.05259469
Te 0.22769775 2.40487060 7.58327737
Te 0.85100883 9.75354550 7.78080832
Te 2.86543757 1.13566807 9.07876497
Te 2.83036790 0.62192910 19.80420687
Te 0.85986550 5.03941510 9.34530032
Te 1.39307297 4.69907332 19.94545610
Te -1.38745749 8.27426378 9.29993568
Te -0.89118370 8.23244478 20.19740331
Te -2.79289134 12.47702502 9.25639225
Te -2.79499722 12.12617660 20.38299496
Te 6.76649485 0.41677642 8.93905695
Te 7.35326283 0.15278510 19.55852263
Te 5.18813799 4.68584625 9.26643966
Te 5.33423269 4.31743821 19.83458936
Te 3.19667646 8.70838997 9.63326788
Te 3.35137827 8.17351360 20.38726279
Te 1.38788804 12.11720662 9.69847501
Te 1.62872559 11.81780973 20.03236511
Te 10.97150484 0.44855754 9.08285594
Te 11.33306655 0.16211581 19.80041434
Te 9.39682281 4.34682146 9.56781915
Te 9.40207010 4.02062113 20.16894063
Te 7.46816384 8.03434561 9.59481414
Te 7.47692635 8.09343361 20.10500868
Te 5.34095912 11.95524511 9.65220481
Te 5.70956507 11.88622116 20.12549373
Te 15.12472535 0.14175387 8.79153246
Te 16.06075028 0.17832384 19.62259872
Te 13.16632484 4.23394793 8.94328072
Te 13.82151821 3.90627704 19.68177483
Te 11.40197295 7.67166712 9.29404156
Te 12.36421341 7.54109864 19.58241838
Te 9.61407036 12.06525137 9.08526505
Te 10.33377406 11.80647255 19.87730994
Te 0.36812193 2.39182097 1.84616533
Te 0.49121136 2.13909477 12.92253058
Te -1.67528512 6.28368785 2.02668199
Te -1.45621082 6.04824041 13.03191482
Te -3.76699640 10.26194393 2.50985454
Te -3.10142131 9.93916543 12.91991660
Te -5.64606479 14.36710025 2.28442712
Te -5.17665983 13.90679549 12.74365639
Te 4.81831433 1.93634127 1.68261549
Te 5.05803995 1.84479748 12.75425311
Te 2.60781004 5.76825824 2.20752072
Te 3.21059425 5.73574338 13.02554889
Te 0.77149715 9.86745518 2.20067381
Te 0.89371030 9.71667987 13.03820036
Te -1.23626785 13.63747805 2.48171062
Te -0.93565067 13.65871811 12.91500043
Te 9.01137850 2.07896706 1.95846052
Te 8.92213755 1.88140823 12.62755128
Te 7.02548905 5.88253666 1.91040532
Te 7.45414524 5.93490689 12.80664376
Te 5.09369096 9.74205144 2.10772166
Te 5.32087119 9.34558899 13.12471354
Te 3.00709914 13.61021530 2.17364559
Te 3.33658345 13.57605036 13.28267471
Te 13.03647046 1.68702456 1.60234761
Te 13.42730733 1.29105659 13.00670378
Te 11.52740892 5.68954173 1.98015380
Te 11.66399497 5.39134565 12.77596469
Te 9.33439277 9.79485464 2.22757221
Te 10.14192226 9.44249504 13.00693185
Te 7.13194797 13.10350033 1.94139607
Te 8.06139052 13.26782673 12.85798160
Te 17.16425754 -0.97878563 5.25118705
Te -6.91441910 14.85034512 17.02163544
Te 15.17664890 2.44854694 5.07939461
Te -1.10715834 3.38041744 16.46930013
Te 13.50212283 6.36421481 5.18286901
Te -2.82188092 7.38245998 16.47404479
Te 11.71014461 10.46927364 5.73762642
Te -5.17347761 11.01873302 16.93256823
Te 4.29695758 -0.21287607 5.64275297
Te 4.45459776 -0.54914868 15.62966722
Te 2.64405871 3.33955014 5.69086301
Te 3.31009508 3.46228682 16.35380287
Te 0.71852223 7.28655379 5.79327594
Te 0.77446492 6.74820330 16.71052445
Te -1.69479634 10.85032653 5.72227203
Te -1.06948976 10.93599166 16.44729524
Te 1.15797988 14.65205354 6.08872760
Te 1.42803825 14.25813899 16.86818053
Te 6.71539606 3.08598940 5.48473984
Te 7.31644874 3.03438481 16.32876251
Te 5.44417855 7.06682290 5.65844249
Te 5.90905917 6.85511263 16.49341868
Te 3.08256693 10.83762405 5.91090862
Te 3.35196559 10.38120447 16.58176685
Te 5.26292971 14.57204549 5.97299654
Te 6.04449369 13.99796774 16.65655202
Te 10.93919356 3.03948264 5.13835707
Te 11.44967924 2.84696523 15.85139946
Te 9.45796661 7.12604931 5.46708505
Te 9.72278360 6.78786076 16.42696772
Te 7.36772753 10.64186660 5.92082551
Te 7.78022294 10.55850252 16.27959809
192
Time=70000.00000007 pbc="T T T" Lattice="17.48407750 -0.94809546 -0.77414695 -7.76191396 15.63286456 0.71286928 0.87637146 -0.39670479 20.93399107" energy=-807.79128328 virial="-24.94671354 -8.42596353 3.06345764 -8.42596353 -34.77573132 -11.20200670 3.06345764 -11.20200670 -17.33515060" stress="-0.00180238 -0.00151023 0.00054908 -0.00151023 -0.00356408 -0.00200779 0.00054908 -0.00200779 -0.00043812" Properties=species:S:1:pos:R:3
Ge 10.10151208 14.47084429 10.40706207
Ge 16.85350288 -0.58992224 -0.27554672
Ge 15.79864602 2.46245443 10.13493467
Ge 15.03848023 2.78123047 -0.02844707
Ge -3.64853725 8.33159116 10.83302657
Ge 13.58884025 6.33663101 -0.06410886
Ge -5.41697105 11.87556892 11.19761312
Ge -5.75389263 11.77215276 0.96629767
Ge 4.81241816 -0.33301000 10.16789564
Ge -3.50731538 15.30102310 0.89614845
Ge 2.78035416 3.08170727 10.40691710
Ge 1.97913902 3.74084014 0.43709478
Ge 0.75443583 7.02083708 10.55940364
Ge 0.30402690 7.48741910 0.43162049
Ge -0.61736265 11.50640659 11.16214317
Ge -1.55419347 10.97877279 0.52401739
Ge 9.56275323 -0.44930522 10.45540313
Ge 7.27569864 3.52238833 10.24627801
Ge 7.06926958 3.18908194 -0.22494268
Ge 5.29157300 6.84636338 10.35832337
Ge 4.78658336 7.29810443 0.32132922
Ge 3.62312414 11.45900630 10.68115475
Ge 3.23580517 10.92482347 0.32145220
Ge 13.74895283 -0.61055238 10.30734410
Ge 13.99248379 -0.80790465 20.14401252
Ge 11.44738927 2.75027329 9.99435143
Ge 10.84178484 3.27102249 0.12442866
Ge 9.70048598 6.70686165 10.25444336
Ge 7.63940958 10.82466901 10.26792007
Ge 7.32921958 10.96700362 0.67422243
Ge 2.57293057 1.23522466 3.60004127
Ge 3.18197067 1.08989748 13.83131849
Ge 0.32872009 4.82193338 3.97141962
Ge 0.80203472 4.57042838 14.06528739
Ge -1.28578498 8.45117527 4.00518049
Ge -0.38309854 8.24312395 14.37702978
Ge -3.18418354 12.64805978 3.61577153
Ge -2.78430116 13.16801443 14.29715245
Ge 6.72293834 0.81570001 3.34921541
Ge 7.73564689 1.10421688 14.18643536
Ge 5.01713153 4.88614603 3.20025814
Ge 5.33761250 4.47842843 14.13002338
Ge 3.00874289 8.67170694 3.40638981
Ge 3.63866465 8.00416247 13.90248171
Ge 0.98678655 12.18536602 3.96251559
Ge 1.53687694 12.28911066 14.50983568
Ge 10.65000069 0.52271451 3.45095327
Ge 11.40050178 0.70172202 13.91837436
Ge 9.14885519 4.10753573 3.39700199
Ge 10.13782891 4.38410657 13.80008813
Ge 7.26325648 8.22513158 3.52733170
Ge 7.72784240 8.42227253 14.02884282
Ge 6.09999234 12.25712058 14.05080273
Ge 15.09763263 0.29593042 3.26321967
Ge 15.66473571 0.06571731 14.05353602
Ge 13.55347386 4.36005346 3.38849156
Ge 14.24460491 3.87755631 13.88092804
Ge 11.62776527 8.08179219 3.62034264
Ge 12.14001582 7.97653517 13.80819607
Ge 9.58896927 11.92564944 3.53813736
Ge 10.25157144 11.70091577 13.87969617
Ge 1.27267864 2.45241426 17.90040941
Ge -1.28319884 6.58921951 7.50272928
Ge -0.95580482 6.04544550 17.85118590
Ge -3.48919133 10.56298321 7.28721359
Ge -2.96213267 10.12603800 18.00270123
Ge -5.46063592 14.24205370 7.64806380
Ge -5.28291970 13.76611020 18.33894728
Ge 4.95735070 1.99027638 6.87876869
Ge 5.25153221 2.08189484 17.25594859
Ge 2.64499499 5.85020095 6.98502192
Ge 3.35529810 5.83636502 17.74757344
Ge 1.30867685 9.78456600 17.66774133
Ge -0.81408392 13.70197638 7.46999117
Ge -0.68198490 13.61462869 18.33912633
Ge 9.13920834 1.51684105 6.68017141
Ge 9.65389145 1.84252605 17.16990536
Ge 7.02018353 6.05962591 6.68554666
Ge 7.50471709 5.58250384 17.66642776
Ge 5.00316683 9.66482921 7.32741523
Ge 6.13154955 9.49615977 17.83197299
Ge 3.37186167 13.75516338 7.01396936
Ge 4.00717161 12.55546191 18.06039951
Ge 13.62253411 1.60617991 6.67095964
Ge 13.97440666 1.47627910 17.13454519
Ge 11.48095977 5.27245480 6.57179985
Ge 12.20539617 5.93536190 16.96550454
Ge 9.63225212 9.74296825 7.02233175
Ge 10.23520189 9.25690553 17.19946203
Ge 7.57945918 13.26549775 6.78151857
Ge 8.55090553 13.57353299 17.93921210
Te 1.13585302 14.64324301 0.61177333
Te 9.83898236 6.78886066 20.63999338
Te 4.88792828 12.06687178 3.93598917
Te 0.33104064 1.90450785 6.88318742
Te 0.83130361 9.81625529 7.22977857
Te 2.68409791 0.82120808 8.55072514
Te 3.41090121 1.24103291 19.44038452
Te 0.57641380 4.91688474 8.78713776
Te 1.18886359 4.81757922 19.11990887
Te -1.33300657 9.25062166 9.29970022
Te -0.46521127 8.54898641 19.58411606
Te -3.24572414 13.07484543 9.26093999
Te -2.77432272 12.32236114 20.11727964
Te 7.17910638 1.09185595 8.63192102
Te 7.25784984 0.71189834 19.02657793
Te 5.18552102 4.30868179 8.85933962
Te 5.58010435 4.53743549 19.21910239
Te 3.03952169 8.44018808 9.48557291
Te 3.73495758 8.23165938 19.42847745
Te 1.16740155 12.76316075 9.27801170
Te 1.45708003 11.81656353 19.53252511
Te 11.54421275 0.36171642 8.28984933
Te 11.77806887 -0.27152916 18.94562307
Te 9.41427120 4.56973520 8.66434508
Te 9.82756218 4.30394787 18.92876181
Te 7.75028684 8.35066642 8.78157689
Te 7.99406599 8.15602454 19.32471416
Te 5.27761375 12.27853951 8.72340269
Te 6.20529877 11.79753615 19.54277813
Te 15.54625476 0.13099278 8.35699225
Te 16.10544819 0.23434260 18.73310045
Te 13.94990451 4.61078677 8.35189777
Te 14.20528483 4.17705329 18.74295324
Te 11.89349505 8.28478316 8.36614757
Te 12.53610852 7.89298870 18.89251561
Te 9.87753075 12.06457701 8.47600630
Te 10.56351044 11.70193087 19.36599726
Te -0.11710443 2.70983175 1.82278167
Te 0.44756500 2.19536488 12.39132614
Te -1.64549227 6.27579702 2.01493677
Te -1.14724563 6.21939255 12.65512415
Te -3.76045622 10.08093551 2.42824184
Te -3.55377469 10.77922652 12.79243766
Te -5.95726479 14.80576406 2.43634627
Te -5.28352705 14.27088416 13.02022724
Te 4.79920062 2.19421505 1.58161843
Te 4.84220384 2.22960399 12.22983878
Te 2.63421346 5.91833330 2.17468065
Te 3.26244755 5.65832290 12.10346882
Te 0.46844663 9.67005479 2.29688407
Te 1.20314582 10.16336968 12.53897417
Te -1.23445311 13.98834814 2.29763227
Te -0.75174137 14.15722573 12.49964473
Te 8.94332309 1.62821090 1.53046689
Te 9.47602986 2.23259173 11.94503532
Te 7.25445257 5.70188403 1.83045894
Te 7.49100302 5.74589709 12.46176425
Te 5.03139641 9.46640997 2.02706482
Te 5.58425849 9.85088989 12.39958040
Te 3.12742486 13.45975329 2.33697704
Te 3.81821555 13.87980539 12.78689349
Te 13.06747101 1.71233562 1.67195965
Te 13.80328164 1.57356034 11.87728464
Te 11.24933628 5.65446320 1.61341113
Te 12.17746237 5.56456640 12.02862522
Te 9.58163711 9.27083090 1.81852438
Te 9.93556861 9.45793630 12.08685398
Te 7.44670808 13.90818714 1.97359715
Te 7.84991111 13.12545886 12.33790269
Te 9.71970947 14.25573507 4.85078999
Te -6.97654908 15.32297449 16.67925760
Te -1.59583866 4.03674898 6.13910649
Te 16.15199850 2.61654245 15.46794316
Te -3.58534914 8.08088724 6.10461408
Te -3.01674746 7.50273115 15.92987342
Te 11.90348384 10.41278985 4.83087268
Te -5.09478401 11.65210554 16.42669375
Te 4.66193095 -0.31691513 4.83552604
Te 5.21144693 -0.41091778 15.75070079
Te 2.95461853 3.67605798 5.38739910
Te 2.96372511 3.36365101 16.00085445
Te 0.74931559 7.40670816 5.39075526
Te 1.55267283 7.05523720 15.87918485
Te -1.39517679 11.45341833 5.50131016
Te -0.63014575 11.48811456 15.91102830
Te 0.97966403 14.85711294 5.45345074
Te 9.30177163 -0.73029947 15.46066788
Te 6.91655107 3.40445889 4.95992577
Te 7.81535780 3.41171365 15.80576963
Te 5.24955210 7.17300421 5.01971628
Te 5.43248534 6.97264836 15.73090678
Te 3.10143503 10.75866728 5.59946799
Te 3.51663748 10.84959650 15.97570933
Te 13.15795086 -0.75370053 4.74112395
Te 13.34282420 -0.85693476 15.44584844
Te 11.44056800 2.92615914 5.31974552
Te 12.13124439 3.10573218 15.77134772
Te 9.31108436 6.68271264 5.09917953
Te 10.09512419 6.99720860 15.51103229
Te 7.50400555 10.82676230 5.30044500
Te 8.22030673 10.94238520 16.04078104
192
Time=80000.00000008 pbc="T T T" Lattice="17.45109599 -0.84670683 -1.09262207 -8.15473792 15.50195022 0.60457139 0.93686250 0.01443294 21.39601367" energy=-804.58263764 virial="-20.34310160 7.19480223 -0.33909954 7.19480223 -27.22662112 -3.45016713 -0.33909954 -3.45016713 -22.35780158" stress="-0.00096405 0.00127214 -0.00005996 0.00127214 -0.00218115 -0.00061004 -0.00005996 -0.00061004 -0.00132027" Properties=species:S:1:pos:R:3
Ge 9.52327318 14.40871777 10.58872729
Ge 0.23898658 0.09993452 0.19016256
Ge 16.08236397 2.29183330 9.71298285
Ge 15.26474805 2.56237001 -0.24959978
Ge -3.36934972 8.02999449 10.94887623
Ge 13.50906430 6.68555337 -0.27450086
Ge 11.70603640 10.85367061 9.92833003
Ge 11.30025037 10.80090694 0.04593380
Ge 4.66296383 0.09440894 10.51590891
Ge -2.49572989 14.86729988 21.36350213
Ge 3.45866144 3.97564154 10.43007381
Ge 2.38513908 3.47960697 0.13033173
Ge 1.13272558 7.63074745 10.45945341
Ge 0.54420891 7.10655673 0.54702199
Ge -1.92100836 11.37627964 11.40709674
Ge -0.94446957 11.60554854 21.57133251
Ge 8.80140900 -0.36422131 10.33157584
Ge 7.25179873 3.18507041 10.48767586
Ge 6.77648154 3.71473960 0.15831101
Ge 4.74872589 7.50001079 10.52445040
Ge 5.27401668 7.07735392 21.15975019
Ge 2.79289148 10.97920625 11.02565318
Ge 3.64873725 10.65949934 21.27367102
Ge 13.23391158 -0.42106150 10.34186709
Ge 13.81982494 -0.47639427 20.46264816
Ge 11.68205332 3.69095046 10.74054409
Ge 11.74252204 3.15346080 20.56979413
Ge 9.67010938 7.37559957 10.65268123
Ge 7.30788496 10.88696386 10.54369825
Ge 7.77993942 11.04227072 20.92160882
Ge 2.20742793 1.19192598 3.94219101
Ge 3.30378213 1.05310690 14.29943338
Ge 0.34728130 4.92188254 3.72759932
Ge 0.79551004 4.95227835 14.14380890
Ge -1.82349278 8.71049953 3.57544827
Ge -1.37816144 8.74120127 14.45326656
Ge -3.15304239 12.82681460 3.93007935
Ge -3.50105872 12.61133960 15.02860782
Ge 6.78229995 1.35427416 3.17575535
Ge 7.48477643 1.54415736 14.06669412
Ge 4.68773698 4.93123092 3.76473819
Ge 5.21244692 5.26104222 14.27724055
Ge 2.28824949 8.57526782 3.53921969
Ge 2.96915294 8.71228483 14.14993559
Ge 0.15785576 12.15218256 3.65316950
Ge 1.25908075 12.41843232 14.14003976
Ge 11.11034554 0.57515092 3.31740576
Ge 11.66793188 0.35258649 13.61595607
Ge 9.31482570 4.62455827 3.19195147
Ge 9.56881646 4.83241832 14.15244908
Ge 6.98744349 8.35579995 3.76217973
Ge 7.70911270 8.42539808 14.31294806
Ge 5.22706730 12.33806645 14.19522091
Ge 15.24614859 0.40268277 2.67688824
Ge 16.28175635 0.65192245 13.78973806
Ge 13.02647779 4.05310123 2.85675409
Ge 13.61615815 4.54307611 13.62316836
Ge 11.35477408 8.27384110 2.61273057
Ge 11.51539792 8.34336305 14.14831290
Ge 9.47214667 12.25145835 3.20028118
Ge 9.56936822 12.23454494 14.15309918
Ge 0.74524289 2.47513951 17.89441274
Ge -1.90046042 6.16511785 7.83290509
Ge -1.22342453 6.35850921 18.49520636
Ge -3.66160689 10.63636430 7.61742842
Ge -2.74374301 9.98950694 17.98299518
Ge -5.33261052 13.97378848 7.38736450
Ge -4.90380760 14.38622523 18.48044023
Ge 4.88539962 2.25856144 6.63200592
Ge 5.04127380 2.53119288 17.78030718
Ge 2.61562214 6.41245279 7.11251355
Ge 2.74353511 5.89517570 17.83083762
Ge 0.76064300 10.29787334 18.23575676
Ge -1.33118226 13.88903740 7.56636543
Ge -0.76365597 14.45337300 18.09422801
Ge 9.02792218 2.18711462 7.08693447
Ge 9.33034787 1.92137687 17.65210191
Ge 7.39295186 6.52326079 7.38152023
Ge 7.84298594 6.05206508 17.77792292
Ge 5.77509683 9.78718215 6.75236077
Ge 5.16247396 9.71365183 18.19400601
Ge 2.85999804 13.66779392 7.33623739
Ge 3.15109264 13.32519966 17.49055122
Ge 13.44693186 1.73604269 6.40245118
Ge 13.55771140 1.81878916 17.09170343
Ge 11.83845625 5.71880524 6.71725006
Ge 12.54503596 6.01384988 17.61339022
Ge 9.39262434 9.39422364 6.77487911
Ge 9.35940077 9.94743771 17.52456124
Ge 7.07979655 13.40760428 7.07730949
Ge 7.96188224 13.33421009 18.35957363
Te 0.53322604 15.07839194 0.21885535
Te 10.17648504 7.82805485 20.67385366
Te 5.12678145 12.75746278 3.01858257
Te -0.10703221 2.56080584 7.30981284
Te 1.41831475 10.66081337 6.97284976
Te 2.42489500 1.28659297 8.97437447
Te 3.15061043 0.79224456 19.49527142
Te 0.78808783 5.27688154 9.06479832
Te 0.99332560 4.65731830 19.85699221
Te -1.56458709 8.93714928 9.39940801
Te -0.99056343 8.67400831 19.97995686
Te -3.66917739 12.80230877 9.58421687
Te -2.55450659 12.59413222 19.60310594
Te 6.91292560 1.00292946 8.79177893
Te 7.50938823 1.12731047 19.37543801
Te 4.99082456 5.04589296 8.47692112
Te 5.31402155 4.93453357 19.19596792
Te 3.11581875 8.72391990 9.02488707
Te 3.18478129 8.42476308 19.49559694
Te 0.62484259 12.79320791 9.48474564
Te 1.28637461 12.55084812 19.61549301
Te 11.27841797 0.60384252 8.36125957
Te 11.69072034 0.91943763 18.91662941
Te 9.31973159 4.55712826 8.81144062
Te 10.10736012 4.38129798 18.92678166
Te 7.18317277 8.44667779 9.09416441
Te 7.22273538 8.56050630 19.49086939
Te 5.17775411 12.45661832 8.82545493
Te 5.61943093 12.63950016 19.53107666
Te 15.38625793 0.06986349 8.32959523
Te 16.14097701 0.29195078 18.49828561
Te 13.55637987 3.97295143 8.34253141
Te 14.55220434 4.01449881 18.92774331
Te 11.71192555 8.03199989 8.53803530
Te 12.55292782 8.32125836 18.85622429
Te 9.50109848 11.99444532 9.03036234
Te 9.91389009 12.09192807 19.48090352
Te 0.30891407 2.27933716 2.05189550
Te 0.79565741 2.41972174 12.90237163
Te -1.61336196 6.22759191 1.94381867
Te -1.80281453 6.44525512 12.59782517
Te -3.62514059 10.20283165 2.22420606
Te -3.71720795 10.22761658 13.03823506
Te -5.66450156 14.25843282 2.40664758
Te -5.25487234 14.42475447 13.15736615
Te 4.84277748 2.66294221 1.66672985
Te 5.13810705 2.62402455 12.10871796
Te 2.52091780 5.88000120 2.15364209
Te 2.66412368 6.36144358 12.47346375
Te 0.50913765 9.88608457 1.53695346
Te 0.85125891 9.97988952 12.78803854
Te -1.46722024 13.96161063 2.25215958
Te -1.21225544 14.02774673 12.78487287
Te 9.03598979 2.32959494 1.38014799
Te 9.43414715 2.03289070 12.05562095
Te 6.90715100 5.89178924 1.78925603
Te 7.72762613 6.25294826 12.42368467
Te 4.44988104 9.91792601 1.66122973
Te 5.33473845 9.93608451 12.41741629
Te 2.79158065 13.80771226 1.55948427
Te 3.43589901 13.57145973 12.43292936
Te 13.18783472 1.56403823 1.28692051
Te 13.90131478 1.64835665 12.26493480
Te 11.12737371 5.84191182 1.05198596
Te 11.89007104 6.08556135 11.88739014
Te 9.18246021 9.96480659 1.56520115
Te 9.38714073 9.67274705 12.52116890
Te 7.46597756 13.67585468 1.54730062
Te 7.59820588 13.31230556 12.36625519
Te 0.43970695 0.13105829 5.46068821
Te -6.93066125 15.06252385 16.72009941
Te 15.42704809 3.17382423 4.61110045
Te -1.24160346 3.86112346 16.21211673
Te -3.66579799 7.63759821 6.17218544
Te 14.00040264 6.64660404 15.04556889
Te 11.43012747 10.77960626 5.00980537
Te -5.26683906 11.48235626 16.88897470
Te 4.67419282 -0.21073388 4.99545196
Te -2.88706929 15.25860664 16.38787083
Te 2.70263074 3.49420680 5.57855694
Te 3.04702180 3.90400111 15.86323124
Te 0.25703684 7.20182231 5.57359745
Te 0.56446083 7.45768497 15.88854240
Te -1.61736823 11.48200527 5.82135438
Te -1.03266318 11.51901199 16.28450975
Te 0.65490987 15.01231789 5.49647375
Te 9.18715389 -0.24362468 15.54851964
Te 6.88353626 3.79625487 4.83809718
Te 7.14049172 3.80736058 15.66980049
Te 5.08427602 7.56094741 5.39963921
Te 5.31282169 7.51556939 15.96722925
Te 3.42993522 11.20443232 5.11898491
Te 3.11993367 11.01332572 15.99703998
Te 5.12975381 14.83912334 5.24071007
Te 5.10826987 14.61078224 15.93709086
Te 11.24281027 3.50696763 4.98859765
Te 11.52459060 3.02500609 15.26551454
Te 9.73409239 7.19715085 4.78860019
Te 9.95199410 7.24976337 15.93212100
Te 7.67611948 11.16245426 5.38610514
Te 7.64619130 11.09691563 15.89233184
192
Time=90000.00000003 pbc="T T T" Lattice="17.49523642 -0.78974690 -0.86220125 -7.87115742 15.50829418 0.54159543 1.24410216 0.13569859 21.10775707" energy=-804.86996639 virial="-16.70627259 0.09774414 -9.15855582 0.09774414 -33.43507273 -22.74368708 -9.15855582 -22.74368708 -16.03030482" stress="-0.00032340 0.00001741 -0.00163142 0.00001741 -0.00330331 -0.00405135 -0.00163142 -0.00405135 -0.00020299" Properties=species:S:1:pos:R:3
Ge 9.81171392 14.33802077 10.11979675
Ge -7.33144945 15.28524738 0.98393454
Ge 15.87910885 3.17906788 10.03713660
Ge 16.76935009 3.20477969 20.36874929
Ge 14.23374630 6.70436069 10.54261595
Ge -3.87262883 8.12760593 0.33235211
Ge 11.85491261 11.19130278 10.51385055
Ge -5.79815928 11.60057530 0.77124986
Ge -2.96603735 15.10179144 11.01201335
Ge 4.64057134 0.20640864 -0.15425820
Ge 2.80240725 4.42366767 10.45304934
Ge 2.40181733 3.36834704 0.12220907
Ge 1.22103951 7.69806013 10.61428554
Ge 0.60815406 7.86125059 0.54901169
Ge -1.34393782 11.05085530 11.11688671
Ge -1.71660477 11.46247329 0.97491180
Ge 1.04207933 14.74563084 10.53941614
Ge 7.30511701 3.20199179 10.43972536
Ge 8.16670813 3.77688789 20.58570792
Ge 5.32963423 7.13876034 10.48287234
Ge 4.70239364 7.40698165 -0.07075622
Ge 3.48329145 11.07102423 11.16517285
Ge 4.18278831 11.39870401 21.02934595
Ge 13.68200065 -0.16324323 10.10290864
Ge 13.34337580 -0.27898972 -0.35408604
Ge 11.77543983 3.91501107 10.08973123
Ge 11.45716823 3.83653462 -0.21466969
Ge 10.45685420 7.33821660 10.44441136
Ge 7.64566509 11.16583948 10.75551265
Ge 7.32418894 10.93841276 -0.19544341
Ge 2.40723611 1.39431558 3.80806088
Ge 3.05500991 1.02521771 13.56906985
Ge -0.04413954 5.18864038 3.37396968
Ge 1.15195470 4.66973463 13.96736943
Ge -1.38547869 9.02407247 4.03065542
Ge -0.41059057 9.00093926 14.61542737
Ge -3.43753828 13.01596126 4.21146434
Ge -2.58149859 12.91954087 14.66877586
Ge 7.31125542 0.89082027 3.41463351
Ge 7.46474141 0.80511118 13.77215207
Ge 5.13293927 4.87382869 3.32544474
Ge 5.79499829 5.18936089 13.59903644
Ge 2.93019834 8.16696458 3.39050254
Ge 3.38652690 9.51471562 14.13751526
Ge 1.18233066 12.73012462 3.96319556
Ge 1.89772478 12.47030467 14.10345317
Ge 10.96792855 1.06463387 2.79106772
Ge 11.85090573 0.59439884 13.95502549
Ge 9.17927909 4.83689483 3.08657528
Ge 9.66806906 4.47557047 13.81554568
Ge 7.46177177 8.73475438 3.45487407
Ge 8.03185233 8.36926307 14.29258878
Ge 6.19193816 12.86720709 14.14179944
Ge 15.67989998 0.70725492 2.95670509
Ge 16.09663451 1.14442169 13.70101121
Ge 13.41328201 4.61256914 2.90662215
Ge 14.56757957 4.74674013 13.90671781
Ge 11.49954211 8.41771908 3.23859098
Ge 12.43527396 8.28576478 14.16719204
Ge 9.52124724 12.57515134 3.09481869
Ge 10.08052124 12.12142070 13.80807220
Ge 0.90188279 2.31547245 17.47067380
Ge -1.41315889 6.26121287 7.56872701
Ge -0.10544425 6.56809769 17.83014237
Ge -3.16296331 10.67273836 7.20313322
Ge -2.63739168 10.51703695 18.58982240
Ge -5.33297965 14.49005381 7.88603227
Ge -4.61717352 14.18858948 18.15222058
Ge 5.05050086 2.72607386 6.59398473
Ge 5.18225333 2.08433739 17.39627830
Ge 3.12477363 6.80093258 6.80877278
Ge 3.58117425 6.24756697 17.81454147
Ge 1.52657732 9.81863272 18.01492681
Ge -0.69005073 13.67270931 7.49396306
Ge 0.34170590 14.15228162 18.08057119
Ge 9.64637067 2.25611792 6.90679141
Ge 10.10712833 2.37529020 17.74542061
Ge 7.48944139 6.09004444 6.81131943
Ge 8.05056569 5.90511904 17.35407408
Ge 5.33311357 9.95992696 7.13049188
Ge 5.99446513 9.90144565 17.23632694
Ge 3.48118954 14.53360912 7.22620952
Ge 4.38478541 14.27194951 17.81305732
Ge 13.64176355 2.09261086 6.52667662
Ge 14.49711292 2.13247202 17.34004002
Ge 11.72600554 6.26387408 6.38765798
Ge 12.57926031 6.05462679 17.15379583
Ge 9.52385562 9.75696874 6.73367240
Ge 10.37685194 9.69314235 17.12497587
Ge 7.09041909 13.52118750 6.69303426
Ge 8.94947229 13.48745793 17.82052675
Te 0.72643370 15.10345123 0.41782931
Te 8.97463752 7.57880665 -0.17606861
Te 5.09523134 12.14184424 3.18886766
Te 0.72721927 2.54248460 7.20252014
Te 1.36834275 9.75530618 7.03573986
Te 2.54362476 1.19272745 9.38709477
Te 3.64528874 1.13448868 19.35667536
Te 0.68957805 5.25380970 9.13301718
Te 1.49117273 4.96226161 19.67419733
Te -1.47028527 8.72289629 8.98844398
Te -0.25339653 8.98316847 19.79185848
Te -3.48508003 12.83173596 9.38884595
Te -2.59411910 12.71910229 20.04268945
Te 6.72536786 1.09855096 8.67985590
Te 7.46212569 1.28573359 18.82661299
Te 5.15130878 5.05062556 8.70766330
Te 5.72632365 4.67261635 19.16236835
Te 3.55025326 8.96452442 9.07400296
Te 3.98247599 8.75783303 19.23902875
Te 1.51795643 12.43068436 8.82380281
Te 1.68936514 12.69167350 19.74453570
Te 11.49344613 0.90476320 8.62306030
Te 12.31298009 1.00677362 18.90141906
Te 9.57763384 4.62987344 8.92168914
Te 10.54268992 4.95738171 19.32686420
Te 7.50996296 8.62220852 8.27943766
Te 8.41736873 9.00111484 18.99206804
Te 5.43225608 12.30849202 9.03859154
Te 6.21494170 12.58399913 19.27000193
Te 15.83044038 0.54845914 8.37724832
Te 16.54336983 0.64299286 18.72632940
Te 13.89212381 4.71674814 8.47446616
Te 14.88036684 4.30272315 18.87151246
Te 11.98091190 8.23661709 8.48964399
Te 12.54017098 8.54975468 18.73263690
Te 9.94688118 11.97221358 8.54100513
Te 10.88130132 12.15597523 19.08247960
Te 0.42503790 2.29339315 2.07963412
Te 0.69677584 2.27985704 12.67052434
Te -2.16789973 6.62534458 1.76385258
Te -0.99107013 6.47149307 12.74602772
Te -3.86562862 10.12471113 2.41287460
Te -3.23009701 10.13887610 12.61987219
Te -5.61924493 13.84313632 2.24798736
Te -4.92159119 13.95003598 13.23824152
Te 4.54614823 2.25244604 1.81501579
Te 5.17766243 2.70161106 12.22009378
Te 2.74817430 5.72978230 1.95404418
Te 2.84486387 6.40295166 12.65986734
Te 0.92693986 10.04116352 2.10077797
Te 1.09357184 10.19851980 12.47181292
Te -1.48988439 13.83570018 2.33657972
Te -0.77909890 13.75390363 12.30351799
Te 8.57781248 2.21193886 1.56232858
Te 9.47447716 1.92284864 12.16430188
Te 6.95377103 5.79581890 1.48583537
Te 8.10196691 6.41523026 12.26292623
Te 5.28990090 9.79850567 1.58208930
Te 5.61198231 9.83702267 12.50771188
Te 2.97518873 13.88612243 1.89168770
Te 3.52609196 14.04918777 12.14669510
Te 13.34318207 1.64900752 1.45348655
Te 13.69291585 2.04175384 11.98057499
Te 11.36030839 6.04996421 1.21783652
Te 11.95909423 5.86376635 12.31511018
Te 9.41138745 10.00526554 1.78584782
Te 9.98825657 9.48392982 12.22003169
Te 7.60673877 13.67499860 1.52444037
Te 8.24565793 13.61597498 12.22462265
Te 17.71748884 -0.73824504 4.75116731
Te 1.24356881 0.21585367 15.90857093
Te 15.79666789 2.85209594 4.61759429
Te 16.53946923 3.04999397 15.54839385
Te 13.67754921 6.92284700 4.59978839
Te -2.84174693 7.68801843 16.39598133
Te 11.78677297 10.66936539 5.05225438
Te -4.51727017 11.59832818 16.71421612
Te -3.36711228 15.01161275 6.10758140
Te -2.89870289 15.41549673 15.82891145
Te 2.78735911 3.93118659 5.22172786
Te 3.81297987 4.15113800 15.74558406
Te 0.62631901 7.48865681 5.31592476
Te 1.53694862 7.54077913 15.90787904
Te -1.16689505 11.47267704 5.60851066
Te 0.00337295 11.71012895 15.99286438
Te 1.11697378 15.06883340 5.93214559
Te 9.63300847 0.00213594 15.38472884
Te 7.13750776 3.52932916 4.85323291
Te 7.58519884 3.72481682 15.39750595
Te 5.09928432 7.28464679 5.11018182