216  
2    

1    
  0.0100000000000000   0.0000000000000000   0.0000000000000000
  -0.0214839500   -0.0000000000   -0.0000000000
   0.0103807600   -0.0000000000   -0.0000000000
   0.0103621200   -0.0000000000   -0.0000000000
   0.0007230100   -0.0000153900   -0.0000000000
   0.0002290400    0.0001754700   -0.0000000000
   0.0002283300   -0.0001765000   -0.0000000000
   0.0007230100    0.0000153900   -0.0000000000
   0.0002290400   -0.0001754700   -0.0000000000
   0.0002283300    0.0001765000   -0.0000000000
   0.0007230100   -0.0000000000   -0.0000153900
   0.0002290400   -0.0000000000    0.0001754700
   0.0002283300   -0.0000000000   -0.0001765000
  -0.0000951500   -0.0000007800   -0.0000007800
   0.0000785400    0.0000440200    0.0000440200
   0.0000790000   -0.0000436500   -0.0000436500
  -0.0000951500    0.0000007800   -0.0000007800
   0.0000785400   -0.0000440200    0.0000440200
   0.0000790000    0.0000436500   -0.0000436500
   0.0007230100   -0.0000000000    0.0000153900
   0.0002290400   -0.0000000000   -0.0001754700
   0.0002283300   -0.0000000000    0.0001765000
  -0.0000951500   -0.0000007800    0.0000007800
   0.0000785400    0.0000440200   -0.0000440200
   0.0000790000   -0.0000436500    0.0000436500
  -0.0000951500    0.0000007800    0.0000007800
   0.0000785400   -0.0000440200   -0.0000440200
   0.0000790000    0.0000436500    0.0000436500
  -0.0001019600   -0.0000031700   -0.0000031700
   0.0002655300    0.0000983200    0.0000983200
   0.0002640300   -0.0000990300   -0.0000990300
  -0.0001616700   -0.0000000000   -0.0000016500
   0.0001047300   -0.0000000000    0.0000710400
   0.0001047400   -0.0000000000   -0.0000702300
  -0.0001019600    0.0000031700   -0.0000031700
   0.0002655300   -0.0000983200    0.0000983200
   0.0002640300    0.0000990300   -0.0000990300
  -0.0001616700   -0.0000016500   -0.0000000000
   0.0001047300    0.0000710400   -0.0000000000
   0.0001047400   -0.0000702300   -0.0000000000
  -0.0000656800   -0.0000000000   -0.0000000000
   0.0000437600   -0.0000000000   -0.0000000000
   0.0000440500   -0.0000000000   -0.0000000000
  -0.0001616700    0.0000016500   -0.0000000000
   0.0001047300   -0.0000710400   -0.0000000000
   0.0001047400    0.0000702300   -0.0000000000
  -0.0001019600   -0.0000031700    0.0000031700
   0.0002655300    0.0000983200   -0.0000983200
   0.0002640300   -0.0000990300    0.0000990300
  -0.0001616700   -0.0000000000    0.0000016500
   0.0001047300   -0.0000000000   -0.0000710400
   0.0001047400   -0.0000000000    0.0000702300
  -0.0001019600    0.0000031700    0.0000031700
   0.0002655300   -0.0000983200   -0.0000983200
   0.0002640300    0.0000990300    0.0000990300
   0.0001311700   -0.0000000000    0.0038368400
   0.0010223800   -0.0000000000    0.0000015000
   0.0001289900   -0.0000000000   -0.0038020500
  -0.0000220900    0.0000994100    0.0000934400
   0.0001830600   -0.0000000200   -0.0000000100
  -0.0000205100   -0.0000979500   -0.0000924100
  -0.0000220900   -0.0000994100    0.0000934400
   0.0001830600    0.0000000200   -0.0000000100
  -0.0000205100    0.0000979500   -0.0000924100
   0.0000539000   -0.0000000000   -0.0000000000
   0.0002760300   -0.0000000000   -0.0000000000
   0.0000563900   -0.0000000000   -0.0000000000
  -0.0000302100    0.0000709400   -0.0000000000
   0.0000905200    0.0000000500   -0.0000000000
  -0.0000293800   -0.0000703700   -0.0000000000
  -0.0000302100   -0.0000709400   -0.0000000000
   0.0000905200   -0.0000000500   -0.0000000000
  -0.0000293800    0.0000703700   -0.0000000000
   0.0001311700   -0.0000000000   -0.0038368400
   0.0010223800   -0.0000000000   -0.0000015000
   0.0001289900   -0.0000000000    0.0038020500
  -0.0000220900    0.0000994100   -0.0000934400
   0.0001830600   -0.0000000200    0.0000000100
  -0.0000205100   -0.0000979500    0.0000924100
  -0.0000220900   -0.0000994100   -0.0000934400
   0.0001830600    0.0000000200    0.0000000100
  -0.0000205100    0.0000979500    0.0000924100
   0.0001311700    0.0038368400   -0.0000000000
   0.0010223800    0.0000015000   -0.0000000000
   0.0001289900   -0.0038020500   -0.0000000000
   0.0000539000   -0.0000000000   -0.0000000000
   0.0002760300   -0.0000000000   -0.0000000000
   0.0000563900   -0.0000000000   -0.0000000000
   0.0001311700   -0.0038368400   -0.0000000000
   0.0010223800   -0.0000015000   -0.0000000000
   0.0001289900    0.0038020500   -0.0000000000
  -0.0000220900    0.0000934400    0.0000994100
   0.0001830600   -0.0000000100   -0.0000000200
  -0.0000205100   -0.0000924100   -0.0000979500
  -0.0000302100   -0.0000000000    0.0000709400
   0.0000905200   -0.0000000000    0.0000000500
  -0.0000293800   -0.0000000000   -0.0000703700
  -0.0000220900   -0.0000934400    0.0000994100
   0.0001830600    0.0000000100   -0.0000000200
  -0.0000205100    0.0000924100   -0.0000979500
  -0.0000220900    0.0000934400   -0.0000994100
   0.0001830600   -0.0000000100    0.0000000200
  -0.0000205100   -0.0000924100    0.0000979500
  -0.0000302100   -0.0000000000   -0.0000709400
   0.0000905200   -0.0000000000   -0.0000000500
  -0.0000293800   -0.0000000000    0.0000703700
  -0.0000220900   -0.0000934400   -0.0000994100
   0.0001830600    0.0000000100    0.0000000200
  -0.0000205100    0.0000924100    0.0000979500
   0.0032365800   -0.0000000000   -0.0000000000
  -0.0069226800   -0.0000000000   -0.0000000000
   0.0025857800   -0.0000000000   -0.0000000000
  -0.0001823600   -0.0008404000   -0.0000000000
  -0.0001415500    0.0000002200   -0.0000000000
  -0.0001818700    0.0008286900   -0.0000000000
  -0.0001823600    0.0008404000   -0.0000000000
  -0.0001415500   -0.0000002200   -0.0000000000
  -0.0001818700   -0.0008286900   -0.0000000000
  -0.0001823600   -0.0000000000   -0.0008404000
  -0.0001415500   -0.0000000000    0.0000002200
  -0.0001818700   -0.0000000000    0.0008286900
  -0.0000012400   -0.0000139900   -0.0000139900
  -0.0001046300   -0.0000000700   -0.0000000700
  -0.0000020000    0.0000139100    0.0000139100
  -0.0000012400    0.0000139900   -0.0000139900
  -0.0001046300    0.0000000700   -0.0000000700
  -0.0000020000   -0.0000139100    0.0000139100
  -0.0001823600   -0.0000000000    0.0008404000
  -0.0001415500   -0.0000000000   -0.0000002200
  -0.0001818700   -0.0000000000   -0.0008286900
  -0.0000012400   -0.0000139900    0.0000139900
  -0.0001046300   -0.0000000700    0.0000000700
  -0.0000020000    0.0000139100   -0.0000139100
  -0.0000012400    0.0000139900    0.0000139900
  -0.0001046300    0.0000000700    0.0000000700
  -0.0000020000   -0.0000139100   -0.0000139100
  -0.0002047700   -0.0001005700   -0.0001005700
  -0.0003271900    0.0000003100    0.0000003100
  -0.0002034500    0.0000990600    0.0000990600
  -0.0000193500   -0.0000000000   -0.0000920100
  -0.0000879100   -0.0000000000   -0.0000000300
  -0.0000197400   -0.0000000000    0.0000911500
  -0.0002047700    0.0001005700   -0.0001005700
  -0.0003271900   -0.0000003100    0.0000003100
  -0.0002034500   -0.0000990600    0.0000990600
  -0.0000193500   -0.0000920100   -0.0000000000
  -0.0000879100   -0.0000000300   -0.0000000000
  -0.0000197400    0.0000911500   -0.0000000000
   0.0000029600   -0.0000000000   -0.0000000000
  -0.0000500200   -0.0000000000   -0.0000000000
   0.0000024500   -0.0000000000   -0.0000000000
  -0.0000193500    0.0000920100   -0.0000000000
  -0.0000879100    0.0000000300   -0.0000000000
  -0.0000197400   -0.0000911500   -0.0000000000
  -0.0002047700   -0.0001005700    0.0001005700
  -0.0003271900    0.0000003100   -0.0000003100
  -0.0002034500    0.0000990600   -0.0000990600
  -0.0000193500   -0.0000000000    0.0000920100
  -0.0000879100   -0.0000000000    0.0000000300
  -0.0000197400   -0.0000000000   -0.0000911500
  -0.0002047700    0.0001005700    0.0001005700
  -0.0003271900   -0.0000003100   -0.0000003100
  -0.0002034500   -0.0000990600   -0.0000990600
   0.0011611500   -0.0000000000   -0.0000113900
  -0.0009596600   -0.0000000000   -0.0002829500
  -0.0009612900   -0.0000000000    0.0002867900
  -0.0000305900    0.0000010500    0.0000013300
  -0.0001128800   -0.0000201500   -0.0000494200
  -0.0001126800    0.0000203400    0.0000490900
  -0.0000305900   -0.0000010500    0.0000013300
  -0.0001128800    0.0000201500   -0.0000494200
  -0.0001126800   -0.0000203400    0.0000490900
  -0.0001429200   -0.0000000000   -0.0000000000
  -0.0001575900   -0.0000000000   -0.0000000000
  -0.0001570000   -0.0000000000   -0.0000000000
   0.0000419300    0.0000002500   -0.0000000000
  -0.0000522900   -0.0000152500   -0.0000000000
  -0.0000524500    0.0000152100   -0.0000000000
   0.0000419300   -0.0000002500   -0.0000000000
  -0.0000522900    0.0000152500   -0.0000000000
  -0.0000524500   -0.0000152100   -0.0000000000
   0.0011611500   -0.0000000000    0.0000113900
  -0.0009596600   -0.0000000000    0.0002829500
  -0.0009612900   -0.0000000000   -0.0002867900
  -0.0000305900    0.0000010500   -0.0000013300
  -0.0001128800   -0.0000201500    0.0000494200
  -0.0001126800    0.0000203400   -0.0000490900
  -0.0000305900   -0.0000010500   -0.0000013300
  -0.0001128800    0.0000201500    0.0000494200
  -0.0001126800   -0.0000203400   -0.0000490900
   0.0011611500   -0.0000113900   -0.0000000000
  -0.0009596600   -0.0002829500   -0.0000000000
  -0.0009612900    0.0002867900   -0.0000000000
  -0.0001429200   -0.0000000000   -0.0000000000
  -0.0001575900   -0.0000000000   -0.0000000000
  -0.0001570000   -0.0000000000   -0.0000000000
   0.0011611500    0.0000113900   -0.0000000000
  -0.0009596600    0.0002829500   -0.0000000000
  -0.0009612900   -0.0002867900   -0.0000000000
  -0.0000305900    0.0000013300    0.0000010500
  -0.0001128800   -0.0000494200   -0.0000201500
  -0.0001126800    0.0000490900    0.0000203400
   0.0000419300   -0.0000000000    0.0000002500
  -0.0000522900   -0.0000000000   -0.0000152500
  -0.0000524500   -0.0000000000    0.0000152100
  -0.0000305900   -0.0000013300    0.0000010500
  -0.0001128800    0.0000494200   -0.0000201500
  -0.0001126800   -0.0000490900    0.0000203400
  -0.0000305900    0.0000013300   -0.0000010500
  -0.0001128800   -0.0000494200    0.0000201500
  -0.0001126800    0.0000490900   -0.0000203400
   0.0000419300   -0.0000000000   -0.0000002500
  -0.0000522900   -0.0000000000    0.0000152500
  -0.0000524500   -0.0000000000   -0.0000152100
  -0.0000305900   -0.0000013300   -0.0000010500
  -0.0001128800    0.0000494200    0.0000201500
  -0.0001126800   -0.0000490900   -0.0000203400

109  
  0.0100000000000000   0.0000000000000000   0.0000000000000000
   0.0026026600    0.0000000000    0.0000000000
   0.0032178700    0.0000000000    0.0000000000
  -0.0069228700    0.0000000000    0.0000000000
  -0.0001840600    0.0002828800    0.0000000000
  -0.0001802100   -0.0002870500    0.0000000000
  -0.0001414700   -0.0000020700    0.0000000000
  -0.0001840600   -0.0002828800    0.0000000000
  -0.0001802100    0.0002870500    0.0000000000
  -0.0001414700    0.0000020700    0.0000000000
  -0.0001840600    0.0000000000    0.0002828800
  -0.0001802100    0.0000000000   -0.0002870500
  -0.0001414700    0.0000000000   -0.0000020700
  -0.0000023700    0.0000491500    0.0000491500
  -0.0000008900   -0.0000493700   -0.0000493700
  -0.0001047400   -0.0000002400   -0.0000002400
  -0.0000023700   -0.0000491500    0.0000491500
  -0.0000008900    0.0000493700   -0.0000493700
  -0.0001047400    0.0000002400   -0.0000002400
  -0.0001840600    0.0000000000   -0.0002828800
  -0.0001802100    0.0000000000    0.0002870500
  -0.0001414700    0.0000000000    0.0000020700
  -0.0000023700    0.0000491500   -0.0000491500
  -0.0000008900   -0.0000493700    0.0000493700
  -0.0001047400   -0.0000002400    0.0000002400
  -0.0000023700   -0.0000491500   -0.0000491500
  -0.0000008900    0.0000493700    0.0000493700
  -0.0001047400    0.0000002400    0.0000002400
  -0.0002060000    0.0001003800    0.0001003800
  -0.0002020400   -0.0000993100   -0.0000993100
  -0.0003272500   -0.0000007600   -0.0000007600
  -0.0000205000    0.0000000000    0.0000913300
  -0.0000182900    0.0000000000   -0.0000920400
  -0.0000879800    0.0000000000   -0.0000002300
  -0.0002060000   -0.0001003800    0.0001003800
  -0.0002020400    0.0000993100   -0.0000993100
  -0.0003272500    0.0000007600   -0.0000007600
  -0.0000205000    0.0000913300    0.0000000000
  -0.0000182900   -0.0000920400    0.0000000000
  -0.0000879800   -0.0000002300    0.0000000000
   0.0000022200    0.0000000000    0.0000000000
   0.0000033300    0.0000000000    0.0000000000
  -0.0000507200    0.0000000000    0.0000000000
  -0.0000205000   -0.0000913300    0.0000000000
  -0.0000182900    0.0000920400    0.0000000000
  -0.0000879800    0.0000002300    0.0000000000
  -0.0002060000    0.0001003800   -0.0001003800
  -0.0002020400   -0.0000993100    0.0000993100
  -0.0003272500   -0.0000007600    0.0000007600
  -0.0000205000    0.0000000000   -0.0000913300
  -0.0000182900    0.0000000000    0.0000920400
  -0.0000879800    0.0000000000    0.0000002300
  -0.0002060000   -0.0001003800   -0.0001003800
  -0.0002020400    0.0000993100    0.0000993100
  -0.0003272500    0.0000007600    0.0000007600
   0.0011611600    0.0000000000    0.0000024500
  -0.0009592500    0.0000000000   -0.0008374700
  -0.0009619800    0.0000000000    0.0008314600
  -0.0000307300    0.0000004900    0.0000028000
  -0.0001120500   -0.0000207600   -0.0000143300
  -0.0001133900    0.0000200000    0.0000135800
  -0.0000307300   -0.0000004900    0.0000028000
  -0.0001120500    0.0000207600   -0.0000143300
  -0.0001133900   -0.0000200000    0.0000135800
  -0.0001423300    0.0000000000    0.0000000000
  -0.0001570700    0.0000000000    0.0000000000
  -0.0001576900    0.0000000000    0.0000000000
   0.0000419800    0.0000012600    0.0000000000
  -0.0000519600   -0.0000154400    0.0000000000
  -0.0000528900    0.0000151100    0.0000000000
   0.0000419800   -0.0000012600    0.0000000000
  -0.0000519600    0.0000154400    0.0000000000
  -0.0000528900   -0.0000151100    0.0000000000
   0.0011611600    0.0000000000   -0.0000024500
  -0.0009592500    0.0000000000    0.0008374700
  -0.0009619800    0.0000000000   -0.0008314600
  -0.0000307300    0.0000004900   -0.0000028000
  -0.0001120500   -0.0000207600    0.0000143300
  -0.0001133900    0.0000200000   -0.0000135800
  -0.0000307300   -0.0000004900   -0.0000028000
  -0.0001120500    0.0000207600    0.0000143300
  -0.0001133900   -0.0000200000   -0.0000135800
   0.0011611600    0.0000024500    0.0000000000
  -0.0009592500   -0.0008374700    0.0000000000
  -0.0009619800    0.0008314600    0.0000000000
  -0.0001423300    0.0000000000    0.0000000000
  -0.0001570700    0.0000000000    0.0000000000
  -0.0001576900    0.0000000000    0.0000000000
   0.0011611600   -0.0000024500    0.0000000000
  -0.0009592500    0.0008374700    0.0000000000
  -0.0009619800   -0.0008314600    0.0000000000
  -0.0000307300    0.0000028000    0.0000004900
  -0.0001120500   -0.0000143300   -0.0000207600
  -0.0001133900    0.0000135800    0.0000200000
   0.0000419800    0.0000000000    0.0000012600
  -0.0000519600    0.0000000000   -0.0000154400
  -0.0000528900    0.0000000000    0.0000151100
  -0.0000307300   -0.0000028000    0.0000004900
  -0.0001120500    0.0000143300   -0.0000207600
  -0.0001133900   -0.0000135800    0.0000200000
  -0.0000307300    0.0000028000   -0.0000004900
  -0.0001120500   -0.0000143300    0.0000207600
  -0.0001133900    0.0000135800   -0.0000200000
   0.0000419800    0.0000000000   -0.0000012600
  -0.0000519600    0.0000000000    0.0000154400
  -0.0000528900    0.0000000000   -0.0000151100
  -0.0000307300   -0.0000028000   -0.0000004900
  -0.0001120500    0.0000143300    0.0000207600
  -0.0001133900   -0.0000135800   -0.0000200000
  -0.0355179900    0.0000000000    0.0000000000
   0.0092426600    0.0000000000    0.0000000000
   0.0091662000    0.0000000000    0.0000000000
   0.0004281600   -0.0000162100    0.0000000000
   0.0000388400    0.0000697600    0.0000000000
   0.0000405800   -0.0000687700    0.0000000000
   0.0004281600    0.0000162100    0.0000000000
   0.0000388400   -0.0000697600    0.0000000000
   0.0000405800    0.0000687700    0.0000000000
   0.0004281600    0.0000000000   -0.0000162100
   0.0000388400    0.0000000000    0.0000697600
   0.0000405800    0.0000000000   -0.0000687700
   0.0000188400   -0.0000000600   -0.0000000600
   0.0000928200    0.0000164200    0.0000164200
   0.0000934300   -0.0000161800   -0.0000161800
   0.0000188400    0.0000000600   -0.0000000600
   0.0000928200   -0.0000164200    0.0000164200
   0.0000934300    0.0000161800   -0.0000161800
   0.0004281600    0.0000000000    0.0000162100
   0.0000388400    0.0000000000   -0.0000697600
   0.0000405800    0.0000000000    0.0000687700
   0.0000188400   -0.0000000600    0.0000000600
   0.0000928200    0.0000164200   -0.0000164200
   0.0000934300   -0.0000161800    0.0000161800
   0.0000188400    0.0000000600    0.0000000600
   0.0000928200   -0.0000164200   -0.0000164200
   0.0000934300    0.0000161800    0.0000161800
   0.0003044000   -0.0000021600   -0.0000021600
   0.0005266800    0.0000009700    0.0000009700
   0.0005273400   -0.0000012000   -0.0000012000
   0.0001145100    0.0000000000   -0.0000023000
   0.0000430200    0.0000000000    0.0000193600
   0.0000437000    0.0000000000   -0.0000189400
   0.0003044000    0.0000021600   -0.0000021600
   0.0005266800   -0.0000009700    0.0000009700
   0.0005273400    0.0000012000   -0.0000012000
   0.0001145100   -0.0000023000    0.0000000000
   0.0000430200    0.0000193600    0.0000000000
   0.0000437000   -0.0000189400    0.0000000000
   0.0000047000    0.0000000000    0.0000000000
   0.0000497500    0.0000000000    0.0000000000
   0.0000500100    0.0000000000    0.0000000000
   0.0001145100    0.0000023000    0.0000000000
   0.0000430200   -0.0000193600    0.0000000000
   0.0000437000    0.0000189400    0.0000000000
   0.0003044000   -0.0000021600    0.0000021600
   0.0005266800    0.0000009700   -0.0000009700
   0.0005273400   -0.0000012000    0.0000012000
   0.0001145100    0.0000000000    0.0000023000
   0.0000430200    0.0000000000   -0.0000193600
   0.0000437000    0.0000000000    0.0000189400
   0.0003044000    0.0000021600    0.0000021600
   0.0005266800   -0.0000009700   -0.0000009700
   0.0005273400    0.0000012000    0.0000012000
   0.0012311900    0.0000000000   -0.0012560500
   0.0012542800    0.0000000000    0.0012758400
   0.0017157700    0.0000000000    0.0000023600
   0.0001464400   -0.0000010500   -0.0000724200
   0.0001458200    0.0000011100    0.0000728700
   0.0000992900    0.0000003600    0.0000003100
   0.0001464400    0.0000010500   -0.0000724200
   0.0001458200   -0.0000011100    0.0000728700
   0.0000992900   -0.0000003600    0.0000003100
   0.0001588800    0.0000000000    0.0000000000
   0.0001607000    0.0000000000    0.0000000000
   0.0000832500    0.0000000000    0.0000000000
   0.0000251700   -0.0000191300    0.0000000000
   0.0000243400    0.0000192000    0.0000000000
   0.0000700900    0.0000001300    0.0000000000
   0.0000251700    0.0000191300    0.0000000000
   0.0000243400   -0.0000192000    0.0000000000
   0.0000700900   -0.0000001300    0.0000000000
   0.0012311900    0.0000000000    0.0012560500
   0.0012542800    0.0000000000   -0.0012758400
   0.0017157700    0.0000000000   -0.0000023600
   0.0001464400   -0.0000010500    0.0000724200
   0.0001458200    0.0000011100   -0.0000728700
   0.0000992900    0.0000003600   -0.0000003100
   0.0001464400    0.0000010500    0.0000724200
   0.0001458200   -0.0000011100   -0.0000728700
   0.0000992900   -0.0000003600   -0.0000003100
   0.0012311900   -0.0012560500    0.0000000000
   0.0012542800    0.0012758400    0.0000000000
   0.0017157700    0.0000023600    0.0000000000
   0.0001588800    0.0000000000    0.0000000000
   0.0001607000    0.0000000000    0.0000000000
   0.0000832500    0.0000000000    0.0000000000
   0.0012311900    0.0012560500    0.0000000000
   0.0012542800   -0.0012758400    0.0000000000
   0.0017157700   -0.0000023600    0.0000000000
   0.0001464400   -0.0000724200   -0.0000010500
   0.0001458200    0.0000728700    0.0000011100
   0.0000992900    0.0000003100    0.0000003600
   0.0000251700    0.0000000000   -0.0000191300
   0.0000243400    0.0000000000    0.0000192000
   0.0000700900    0.0000000000    0.0000001300
   0.0001464400    0.0000724200   -0.0000010500
   0.0001458200   -0.0000728700    0.0000011100
   0.0000992900   -0.0000003100    0.0000003600
   0.0001464400   -0.0000724200    0.0000010500
   0.0001458200    0.0000728700   -0.0000011100
   0.0000992900    0.0000003100   -0.0000003600
   0.0000251700    0.0000000000    0.0000191300
   0.0000243400    0.0000000000   -0.0000192000
   0.0000700900    0.0000000000   -0.0000001300
   0.0001464400    0.0000724200    0.0000010500
   0.0001458200   -0.0000728700   -0.0000011100
   0.0000992900   -0.0000003100   -0.0000003600
